/*--------------------------------*- C++ -*----------------------------------*\
| =========                 |                                                 |
| \\      /  F ield         | OpenFOAM: The Open Source CFD Toolbox           |
|  \\    /   O peration     | Version:  v1906                                 |
|   \\  /    A nd           | Web:      www.OpenFOAM.com                      |
|    \\/     M anipulation  |                                                 |
\*---------------------------------------------------------------------------*/
FoamFile
{
    version     2.0;
    format      ascii;
    class       volVectorField;
    location    "71";
    object      U;
}
// * * * * * * * * * * * * * * * * * * * * * * * * * * * * * * * * * * * * * //

dimensions      [0 1 -1 0 0 0 0];


internalField   nonuniform List<vector> 
2650
(
(0.458707 -0.000840416 3.1688e-16)
(0.480025 -0.00133873 5.4644e-16)
(0.497069 -0.00158139 5.35547e-16)
(0.524851 -0.00193786 9.77141e-17)
(0.554458 -0.00212206 -3.05321e-15)
(0.589146 -0.00233275 -3.16745e-17)
(0.627612 -0.00248582 1.03974e-16)
(0.669348 -0.00268596 -1.94781e-16)
(0.71755 -0.00284047 1.60638e-16)
(0.767107 -0.00308881 -5.64858e-16)
(0.828768 -0.00319058 -6.76519e-16)
(0.884391 -0.00337083 1.77514e-16)
(0.960413 -0.00291462 -2.76312e-16)
(0.998053 -0.00146368 -1.26776e-16)
(1.02385 0.00168886 7.17877e-16)
(0.459348 -0.00230492 9.19574e-16)
(0.480826 -0.00347511 -2.10685e-15)
(0.497979 -0.0041955 1.55666e-15)
(0.525867 -0.0050931 3.16348e-16)
(0.555554 -0.00559813 2.35405e-16)
(0.590335 -0.00614061 -3.83254e-15)
(0.628873 -0.00655368 6.18688e-16)
(0.670706 -0.00706855 -5.71153e-16)
(0.718995 -0.00749472 4.51559e-16)
(0.768663 -0.00811844 -1.6397e-15)
(0.830452 -0.00843743 -3.3681e-17)
(0.886241 -0.00883827 5.40833e-16)
(0.962599 -0.00775892 -7.94052e-16)
(1.0007 -0.00380007 -3.40262e-16)
(1.02765 0.00433048 4.41653e-16)
(0.456422 -0.00384047 1.54808e-15)
(0.478055 -0.00542539 -1.69287e-15)
(0.495256 -0.00672956 4.24505e-16)
(0.523116 -0.00807207 6.61225e-16)
(0.5527 -0.00891298 -3.35232e-15)
(0.587336 -0.00974749 -5.36822e-16)
(0.625685 -0.0104237 -5.72827e-18)
(0.667313 -0.0112158 1.3358e-16)
(0.715359 -0.0119314 -2.99969e-16)
(0.764776 -0.012862 -1.66526e-15)
(0.826296 -0.0134723 -6.61389e-16)
(0.881857 -0.0139705 9.14745e-16)
(0.958264 -0.0125154 -1.35155e-15)
(0.996806 -0.00597206 -5.61954e-16)
(1.02587 0.0066298 2.64503e-16)
(0.45022 -0.00539876 5.69681e-16)
(0.472033 -0.00739876 -2.32162e-15)
(0.489224 -0.00929882 1.21361e-15)
(0.516937 -0.0110788 -2.62232e-15)
(0.546252 -0.0122568 1.55434e-15)
(0.580529 -0.0133795 -8.1904e-16)
(0.61845 -0.0143213 -4.06625e-16)
(0.6596 -0.0153894 -1.49803e-16)
(0.707104 -0.0163995 -7.74039e-17)
(0.755936 -0.0176361 -1.11148e-15)
(0.816831 -0.0185525 -4.01603e-16)
(0.871805 -0.0191577 3.31803e-15)
(0.948016 -0.01738 -3.5807e-16)
(0.986996 -0.00827215 -7.52228e-16)
(1.01914 0.00888383 1.64347e-16)
(0.440951 -0.00688899 -1.53306e-16)
(0.462978 -0.00931565 1.43733e-15)
(0.480104 -0.0117761 1.93404e-15)
(0.50756 -0.0139706 1.94401e-15)
(0.536448 -0.0154638 -9.20032e-16)
(0.570167 -0.0168582 -7.69621e-16)
(0.607435 -0.0180525 -7.66722e-16)
(0.647852 -0.0193841 -3.74113e-16)
(0.694533 -0.0206755 1.23765e-16)
(0.742471 -0.0222095 -8.00407e-16)
(0.802406 -0.0234237 -2.82018e-16)
(0.85645 -0.0241656 1.26026e-15)
(0.932226 -0.0221269 3.43419e-16)
(0.971632 -0.0106604 -9.75599e-16)
(1.00785 0.0109835 8.8302e-17)
(0.428749 -0.00827681 2.14975e-16)
(0.45102 -0.0111315 1.77953e-15)
(0.468025 -0.0140995 2.71476e-15)
(0.495113 -0.0166723 1.25827e-15)
(0.523418 -0.0184476 2.91727e-15)
(0.556387 -0.0200894 -3.76194e-15)
(0.592785 -0.0215152 -1.08999e-15)
(0.632224 -0.0230907 -5.77752e-16)
(0.677812 -0.0246426 3.51072e-16)
(0.724555 -0.0264574 -6.22379e-16)
(0.783203 -0.0279553 -2.19855e-16)
(0.835979 -0.0288644 8.29804e-16)
(0.911065 -0.0266506 9.1116e-16)
(0.95085 -0.0131177 -7.44352e-16)
(0.992089 0.0128563 4.06754e-17)
(0.413713 -0.00953887 4.65725e-16)
(0.436251 -0.0128142 -9.36673e-16)
(0.453074 -0.0162257 2.84125e-15)
(0.479677 -0.0191299 7.91358e-16)
(0.507243 -0.0211471 3.2288e-15)
(0.539271 -0.0230059 -7.42158e-16)
(0.574585 -0.0246371 -1.01476e-15)
(0.612806 -0.0264315 -3.58581e-16)
(0.657035 -0.0282177 6.39179e-16)
(0.702292 -0.0302905 -5.27879e-16)
(0.759328 -0.0320543 -1.86252e-16)
(0.810496 -0.0331597 5.64289e-16)
(0.884601 -0.0308741 1.03544e-15)
(0.924667 -0.0156323 -6.25712e-16)
(0.971844 0.0144479 -1.32394e-18)
(0.395931 -0.0106524 6.42173e-16)
(0.418746 -0.0143348 4.06176e-15)
(0.435316 -0.0181118 3.26533e-15)
(0.461309 -0.0212927 1.09372e-15)
(0.487977 -0.0235046 1.16671e-15)
(0.518872 -0.0255453 2.50168e-15)
(0.55289 -0.0273508 -6.44993e-16)
(0.589658 -0.0293344 -1.82776e-16)
(0.632267 -0.0313239 2.29546e-15)
(0.675748 -0.0336259 -1.34989e-16)
(0.730847 -0.0356323 -1.6213e-16)
(0.780058 -0.0369606 5.65983e-16)
(0.852849 -0.0347172 1.2198e-15)
(0.893032 -0.0181858 -5.91172e-16)
(0.946984 0.0157084 -4.5881e-17)
(0.37549 -0.0115942 7.6133e-16)
(0.398576 -0.0156614 -5.13903e-16)
(0.41481 -0.0197145 1.70852e-15)
(0.440056 -0.0231082 1.22943e-15)
(0.46566 -0.0254621 1.72212e-15)
(0.495231 -0.0276445 5.541e-16)
(0.527743 -0.0295891 -3.64579e-16)
(0.562824 -0.0317276 -5.04146e-17)
(0.603551 -0.0338839 1.10111e-15)
(0.644972 -0.0363803 1.76548e-16)
(0.697805 -0.0385997 -1.43696e-16)
(0.744704 -0.0401712 3.31285e-16)
(0.815792 -0.0380885 8.1721e-16)
(0.855845 -0.0207459 -6.31478e-16)
(0.917299 0.0165929 -8.88284e-17)
(0.352482 -0.0123406 8.2114e-16)
(0.37581 -0.016761 1.42397e-15)
(0.39161 -0.0209872 3.64323e-15)
(0.415958 -0.0245228 1.52542e-15)
(0.440325 -0.0269607 1.56389e-15)
(0.46838 -0.0292407 1.17811e-15)
(0.499174 -0.031285 1.17286e-16)
(0.532337 -0.0335392 5.02642e-17)
(0.570924 -0.0358211 1.32367e-15)
(0.610002 -0.0384705 4.41747e-16)
(0.660236 -0.0408659 -1.4118e-16)
(0.704463 -0.0426915 1.64297e-16)
(0.773398 -0.0408853 5.22156e-16)
(0.81298 -0.0232616 -7.23569e-16)
(0.88249 0.0170571 -1.33168e-16)
(0.327011 -0.0128672 8.39198e-16)
(0.350521 -0.0175972 -1.5902e-16)
(0.365771 -0.0218819 2.79845e-15)
(0.38905 -0.0254811 1.60578e-15)
(0.412007 -0.0279415 1.31738e-15)
(0.438348 -0.0302712 1.85179e-15)
(0.467213 -0.0323718 2.74767e-16)
(0.498228 -0.0346982 1.01267e-16)
(0.534417 -0.0370594 6.625e-16)
(0.570874 -0.0398139 6.86199e-16)
(0.618172 -0.04234 -1.55875e-16)
(0.659359 -0.044417 2.66394e-17)
(0.725622 -0.0429924 3.06174e-16)
(0.76429 -0.0256577 -6.00839e-16)
(0.842165 0.0170635 -1.73494e-16)
(0.299199 -0.0131485 7.96312e-16)
(0.322786 -0.0181293 3.33378e-15)
(0.337348 -0.0223471 4.02691e-15)
(0.35937 -0.025926 1.56299e-15)
(0.380732 -0.0283454 2.74916e-15)
(0.405161 -0.0306735 1.86646e-15)
(0.431887 -0.032784 1.42311e-16)
(0.460526 -0.0351343 1.10812e-16)
(0.49406 -0.0375237 1.44616e-15)
(0.527622 -0.0403285 1.82729e-15)
(0.571638 -0.0429314 -1.94986e-16)
(0.609425 -0.0452392 -1.00729e-16)
(0.672423 -0.0442815 1.43946e-16)
(0.709621 -0.0278309 -2.82912e-16)
(0.795813 0.0165863 -2.09201e-16)
(0.269189 -0.013157 7.17375e-16)
(0.292689 -0.0183109 1.48871e-15)
(0.306401 -0.0223281 2.10604e-15)
(0.326954 -0.0257987 1.48417e-15)
(0.346532 -0.0281125 1.15323e-15)
(0.368848 -0.0303852 3.77725e-15)
(0.393222 -0.0324563 -6.79646e-16)
(0.419261 -0.0347779 -7.31873e-16)
(0.449882 -0.0371403 1.34964e-15)
(0.480282 -0.0399327 9.32668e-16)
(0.520666 -0.0425497 -7.0997e-17)
(0.554698 -0.0450464 -8.15685e-18)
(0.613763 -0.0446108 2.24353e-17)
(0.648827 -0.0296385 1.72948e-17)
(0.742791 0.0156089 -2.47031e-16)
(0.237149 -0.0128649 5.91528e-16)
(0.260316 -0.0180869 1.27187e-15)
(0.27299 -0.0217664 2.03423e-15)
(0.291838 -0.0250381 1.37063e-15)
(0.309436 -0.0271832 1.18296e-15)
(0.329436 -0.0293447 2.14979e-15)
(0.351249 -0.0313242 3.04844e-16)
(0.374465 -0.0335606 1.65999e-16)
(0.401912 -0.0358358 1.31125e-15)
(0.428893 -0.0385463 9.70136e-16)
(0.465285 -0.041106 2.04542e-16)
(0.495231 -0.0437246 8.50682e-17)
(0.549615 -0.0438267 -6.93095e-17)
(0.581785 -0.0308909 3.29887e-16)
(0.68228 0.0141339 -9.05541e-17)
(0.203285 -0.0122366 4.30641e-16)
(0.22576 -0.017394 1.13646e-15)
(0.237176 -0.0205988 2.01398e-15)
(0.254057 -0.0235815 1.2257e-15)
(0.269476 -0.0254976 1.07152e-15)
(0.286955 -0.0274909 1.76294e-15)
(0.305995 -0.0293245 3.744e-16)
(0.326172 -0.0314146 2.06061e-16)
(0.350184 -0.0335391 1.97363e-15)
(0.3735 -0.0360906 8.345e-16)
(0.40553 -0.0385139 2.64637e-16)
(0.43109 -0.0411595 1.75598e-16)
(0.47997 -0.041765 3.75692e-17)
(0.508417 -0.0313439 -5.98244e-17)
(0.61325 0.0121913 6.70314e-17)
(0.167849 -0.0112311 2.38695e-16)
(0.189109 -0.0161518 4.54956e-16)
(0.199023 -0.01876 3.08328e-15)
(0.213647 -0.0213645 1.04884e-15)
(0.226685 -0.022998 8.64136e-16)
(0.241439 -0.0247646 2.91377e-15)
(0.257495 -0.0263969 3.81231e-16)
(0.274421 -0.0282753 2.19849e-16)
(0.294732 -0.0301822 9.61209e-16)
(0.314156 -0.03249 7.16565e-16)
(0.341436 -0.0346916 1.39913e-16)
(0.362367 -0.03724 2.56168e-16)
(0.404835 -0.0382588 -3.70932e-16)
(0.428724 -0.0306819 4.64167e-16)
(0.534395 0.00984085 2.23132e-16)
(0.131149 -0.00980899 7.43054e-17)
(0.150452 -0.0142553 1.3857e-15)
(0.158594 -0.0161811 1.57504e-15)
(0.170641 -0.0183199 8.56124e-16)
(0.181098 -0.0196279 7.83335e-16)
(0.192923 -0.0211077 1.46809e-15)
(0.205785 -0.0224829 3.5364e-16)
(0.219257 -0.0240792 2.06779e-16)
(0.235593 -0.0256999 8.45373e-16)
(0.25092 -0.0276706 1.27096e-15)
(0.273039 -0.0295635 5.03967e-18)
(0.289169 -0.0318574 1.77866e-16)
(0.324245 -0.0331427 2.02502e-16)
(0.342832 -0.0284941 3.02204e-16)
(0.444075 0.00720634 -2.59167e-16)
(0.0935767 -0.00789702 -5.39195e-17)
(0.109861 -0.0115537 -2.3178e-16)
(0.115953 -0.0127774 1.07449e-15)
(0.125073 -0.0143677 6.21232e-16)
(0.132752 -0.0153208 5.83651e-16)
(0.141447 -0.0164511 2.42463e-15)
(0.150903 -0.0175132 2.90206e-16)
(0.160731 -0.01875 1.71868e-16)
(0.172807 -0.0200154 5.85891e-16)
(0.183865 -0.0215437 3.83571e-16)
(0.200373 -0.023043 3.45245e-18)
(0.211643 -0.0248889 1.16487e-16)
(0.238261 -0.0262438 1.16194e-16)
(0.251045 -0.0242139 1.80694e-16)
(0.340243 0.00454329 1.91485e-16)
(0.0556461 -0.00535128 -1.38691e-16)
(0.0673876 -0.00782721 9.1612e-16)
(0.0711613 -0.00842497 7.26924e-16)
(0.0769739 -0.00940035 3.74537e-16)
(0.0816935 -0.00997848 2.8178e-16)
(0.0870602 -0.0106973 7.26126e-16)
(0.0928991 -0.0113844 1.90479e-16)
(0.098906 -0.0121797 1.28486e-16)
(0.106418 -0.0130114 7.83537e-16)
(0.113081 -0.0139864 2.97782e-16)
(0.123473 -0.0149963 -1.33987e-17)
(0.129964 -0.0161879 6.41504e-17)
(0.146971 -0.0173367 5.86119e-17)
(0.153936 -0.0171085 9.64464e-17)
(0.220375 0.00226161 2.11087e-17)
(0.0180605 -0.00200516 -1.30776e-16)
(0.0230095 -0.00291971 -6.15781e-17)
(0.0242792 -0.00302455 3.24973e-16)
(0.0263597 -0.00334319 1.2416e-16)
(0.0279658 -0.00353358 2.06002e-16)
(0.0298075 -0.00377963 1.99382e-16)
(0.0318177 -0.00402218 6.72327e-17)
(0.0338493 -0.00430103 8.39503e-17)
(0.0364655 -0.0045945 1.35648e-16)
(0.0386681 -0.00493935 9.41754e-17)
(0.0423536 -0.005295 -4.29222e-17)
(0.044333 -0.00573162 1.89705e-17)
(0.0504683 -0.00619691 1.67651e-17)
(0.0523591 -0.00678206 2.90255e-17)
(0.0810858 0.000401482 5.03127e-18)
(0.947165 0.00685838 6.55405e-16)
(0.864307 0.0089021 2.51793e-16)
(0.776192 0.00948339 6.71339e-16)
(0.684113 0.00925711 5.32476e-16)
(0.599451 0.00839081 -5.64343e-17)
(0.524242 0.00728691 -1.56323e-16)
(0.460483 0.00611231 -1.37483e-16)
(0.407701 0.00500439 4.61671e-16)
(0.365034 0.00401201 -3.18476e-17)
(0.331176 0.00315305 -5.6446e-17)
(0.304875 0.0024196 6.39736e-16)
(0.284998 0.00179481 1.19482e-15)
(0.270614 0.00125731 3.19224e-16)
(0.260992 0.000785503 6.76848e-16)
(0.25561 0.000358777 2.14309e-16)
(0.254133 -4.16649e-05 1.63619e-16)
(0.256396 -0.000433404 2.07434e-16)
(0.262396 -0.000832696 7.21538e-16)
(0.272282 -0.00125504 7.49031e-16)
(0.286342 -0.00171548 3.05829e-16)
(0.305012 -0.00222937 7.3707e-16)
(0.328878 -0.00281237 7.51168e-16)
(0.358666 -0.00348071 2.87354e-16)
(0.395272 -0.00425116 6.68635e-16)
(0.439753 -0.00514028 2.76418e-16)
(0.49331 -0.0061622 6.72926e-16)
(0.557262 -0.00732434 2.76454e-16)
(0.632954 -0.00862221 6.06291e-16)
(0.721652 -0.0100229 7.55281e-16)
(0.824009 -0.0114625 2.98105e-16)
(0.940185 -0.0127884 7.37798e-16)
(1.06766 -0.0138479 6.74083e-16)
(1.20446 -0.0142184 1.24679e-15)
(1.33786 -0.0139087 2.28559e-16)
(1.4714 -0.0119 8.9985e-16)
(0.951193 0.0181914 1.81526e-15)
(0.868083 0.0233565 6.72607e-16)
(0.779815 0.0249826 1.91367e-15)
(0.68773 0.024337 1.84232e-15)
(0.603103 0.0220758 -1.89577e-16)
(0.52797 0.0191659 -4.47513e-16)
(0.464275 0.0160823 -4.12786e-16)
(0.411534 0.0131703 1.34603e-15)
(0.368875 0.0105633 -1.13938e-16)
(0.335 0.0083056 -1.96038e-16)
(0.30866 0.00637713 1.83558e-15)
(0.288734 0.00473331 1.58927e-15)
(0.274297 0.00331828 8.3243e-16)
(0.264626 0.00207535 1.9413e-15)
(0.259202 0.000950614 5.88934e-16)
(0.257693 -0.000105242 4.56919e-16)
(0.259937 -0.00113817 5.65508e-16)
(0.26593 -0.00219083 2.04989e-15)
(0.27582 -0.00330375 2.13182e-15)
(0.289891 -0.00451644 8.32403e-16)
(0.308576 -0.00586906 2.1016e-15)
(0.332455 -0.00740276 2.13099e-15)
(0.36225 -0.00916003 7.77335e-16)
(0.398847 -0.011185 1.92544e-15)
(0.443298 -0.0135211 7.3311e-16)
(0.496796 -0.0162056 1.91351e-15)
(0.560654 -0.0192583 7.24998e-16)
(0.636213 -0.0226672 1.56507e-15)
(0.72474 -0.0263484 2.11491e-15)
(0.826902 -0.0301287 8.04375e-16)
(0.942864 -0.0336238 2.06323e-15)
(1.07017 -0.0363886 1.81098e-15)
(1.20678 -0.0374268 1.6489e-15)
(1.34019 -0.0364704 6.62785e-16)
(1.47375 -0.0315172 6.52816e-16)
(0.94999 0.0293278 1.81507e-15)
(0.866734 0.0371579 8.60204e-16)
(0.778685 0.0398946 1.98757e-15)
(0.687035 0.0387434 1.89608e-15)
(0.602964 0.0351514 -5.16296e-16)
(0.528423 0.0304946 -7.67221e-16)
(0.465266 0.0255917 -8.16492e-16)
(0.412976 0.0209608 1.19356e-15)
(0.370668 0.0168195 -3.37363e-16)
(0.33705 0.0132321 -4.75681e-16)
(0.31089 0.0101667 1.91165e-15)
(0.291081 0.00755173 2.09945e-15)
(0.276716 0.00529867 1.21892e-15)
(0.267083 0.00331766 2.0971e-15)
(0.261674 0.00152347 8.53952e-16)
(0.260164 -0.000161912 7.3308e-16)
(0.262393 -0.00181111 8.32209e-16)
(0.26836 -0.00349161 2.21469e-15)
(0.27821 -0.00526753 2.30648e-15)
(0.292225 -0.00720141 1.1457e-15)
(0.310831 -0.00935677 2.27617e-15)
(0.3346 -0.0117988 2.29902e-15)
(0.364243 -0.0145947 1.08569e-15)
(0.400633 -0.0178146 2.05121e-15)
(0.444807 -0.0215275 1.01045e-15)
(0.497941 -0.0257927 2.03816e-15)
(0.561331 -0.0306432 9.88626e-16)
(0.636308 -0.0360596 3.52782e-15)
(0.724131 -0.0419146 2.24666e-15)
(0.825484 -0.0479251 1.12245e-15)
(0.94055 -0.0535117 2.2188e-15)
(1.06695 -0.057888 3.80743e-15)
(1.20266 -0.059669 2.14246e-15)
(1.33531 -0.0579031 9.92753e-16)
(1.46828 -0.0506139 2.86291e-15)
(0.944197 0.0409239 1.23388e-15)
(0.860837 0.0514824 8.89723e-16)
(0.77333 0.0553004 1.46388e-15)
(0.682501 0.053565 1.35185e-15)
(0.599463 0.0485609 -1.26249e-16)
(0.525988 0.0420888 -1.10386e-15)
(0.463807 0.0353139 -4.32564e-16)
(0.412348 0.028924 6.2526e-16)
(0.370706 0.0232168 -7.06967e-16)
(0.337599 0.0182736 -1.51613e-17)
(0.311817 0.0140486 1.46477e-15)
(0.292278 0.0104418 1.83874e-15)
(0.278097 0.00733114 1.46508e-15)
(0.268583 0.00459324 1.69468e-15)
(0.26324 0.00211104 1.02054e-15)
(0.261755 -0.000222378 9.91599e-16)
(0.263973 -0.00250669 1.01394e-15)
(0.269896 -0.00483446 1.7626e-15)
(0.279666 -0.0072937 1.83772e-15)
(0.293563 -0.00997021 1.28063e-15)
(0.312003 -0.0129512 1.83247e-15)
(0.335548 -0.016326 1.83297e-15)
(0.364892 -0.0201871 1.20959e-15)
(0.400891 -0.0246304 1.60871e-15)
(0.444558 -0.0297514 1.13802e-15)
(0.497044 -0.0356319 1.595e-15)
(0.55962 -0.042319 1.13661e-15)
(0.633595 -0.0497874 1.36085e-15)
(0.720219 -0.0578685 1.78963e-15)
(0.82019 -0.0661697 1.27083e-15)
(0.933729 -0.0739157 1.81007e-15)
(1.05856 -0.0799699 1.61155e-15)
(1.1927 -0.08254 1.8594e-15)
(1.32393 -0.0799638 1.22776e-15)
(1.45575 -0.0702541 7.90274e-16)
(0.934199 0.0525789 9.56323e-16)
(0.850769 0.0658384 8.65674e-16)
(0.764126 0.070621 1.22154e-15)
(0.674506 0.0682191 1.09309e-15)
(0.59297 0.0617535 9.55526e-17)
(0.521019 0.0534603 -8.92026e-16)
(0.460234 0.0448329 -1.83132e-16)
(0.409964 0.0367165 4.5086e-16)
(0.369282 0.0294787 -5.26267e-16)
(0.336922 0.0232124 2.75567e-16)
(0.311701 0.0178553 1.32738e-15)
(0.292571 0.0132786 1.8291e-15)
(0.278677 0.00932743 1.68821e-15)
(0.269352 0.00584564 1.58335e-15)
(0.264121 0.00268541 1.14878e-15)
(0.262683 -0.000288129 1.24984e-15)
(0.264893 -0.00320083 1.14462e-15)
(0.270754 -0.00616946 1.59568e-15)
(0.280408 -0.00930526 1.66042e-15)
(0.294128 -0.0127164 1.35467e-15)
(0.312322 -0.0165131 1.66514e-15)
(0.335536 -0.0208078 1.65746e-15)
(0.364446 -0.0257174 1.28261e-15)
(0.399881 -0.0313629 1.46236e-15)
(0.442826 -0.0378653 1.21512e-15)
(0.494396 -0.0453286 1.45186e-15)
(0.555828 -0.0538145 1.23304e-15)
(0.628402 -0.0632942 1.44925e-15)
(0.71335 -0.0735622 1.64193e-15)
(0.81139 -0.0841243 1.35526e-15)
(0.922789 -0.0940152 1.67512e-15)
(1.04539 -0.10176 1.67058e-15)
(1.17733 -0.105138 1.83877e-15)
(1.30648 -0.101807 1.44201e-15)
(1.43663 -0.0896375 1.01969e-15)
(0.920149 0.0641857 8.38766e-16)
(0.836693 0.0800541 8.42018e-16)
(0.751264 0.0856432 1.1318e-15)
(0.663266 0.082472 1.00876e-15)
(0.58371 0.0745012 2.69118e-16)
(0.513741 0.064403 -3.48835e-16)
(0.454761 0.0539721 4.126e-17)
(0.406025 0.0441926 4.8395e-16)
(0.366582 0.0354884 -2.91889e-18)
(0.335188 0.0279569 5.11389e-16)
(0.310698 0.0215167 1.33271e-15)
(0.292105 0.0160102 1.96626e-15)
(0.278591 0.0112507 1.93612e-15)
(0.269521 0.00705097 1.59367e-15)
(0.264443 0.00323403 1.24361e-15)
(0.263073 -0.000361344 1.53354e-15)
(0.265274 -0.00388582 1.23946e-15)
(0.271056 -0.00747907 1.56885e-15)
(0.280558 -0.0112744 1.62585e-15)
(0.294048 -0.015401 1.40648e-15)
(0.31192 -0.0199909 1.63357e-15)
(0.334704 -0.0251783 1.6228e-15)
(0.363051 -0.0311031 1.33711e-15)
(0.39776 -0.0379095 1.45173e-15)
(0.439778 -0.045743 1.27668e-15)
(0.490178 -0.0547288 1.44523e-15)
(0.550151 -0.0649438 1.30146e-15)
(0.620939 -0.0763585 1.52291e-15)
(0.70375 -0.088736 1.62162e-15)
(0.799317 -0.101492 1.4066e-15)
(0.907969 -0.113483 1.65308e-15)
(1.02769 -0.12291 1.70331e-15)
(1.15677 -0.127115 1.94816e-15)
(1.28318 -0.123091 1.65277e-15)
(1.4111 -0.108463 1.23743e-15)
(0.90208 0.0757107 8.17183e-16)
(0.818665 0.0940493 8.19801e-16)
(0.734847 0.10025 1.12353e-15)
(0.648922 0.096188 1.0322e-15)
(0.571845 0.0866688 4.08643e-16)
(0.50432 0.0747943 -1.42074e-18)
(0.447546 0.062627 2.30872e-16)
(0.400673 0.0512673 6.31638e-16)
(0.362734 0.0411782 3.3139e-16)
(0.332512 0.0324545 6.92933e-16)
(0.308911 0.0249929 1.40343e-15)
(0.290974 0.018607 1.72723e-15)
(0.277926 0.0130799 1.73756e-15)
(0.26917 0.00819537 1.64332e-15)
(0.264283 0.0037492 1.29558e-15)
(0.262998 -0.000444294 1.38803e-15)
(0.265191 -0.00455885 1.28222e-15)
(0.270877 -0.0087555 1.62275e-15)
(0.280194 -0.013188 1.67482e-15)
(0.293401 -0.0180054 1.44221e-15)
(0.31088 -0.0233596 1.68259e-15)
(0.333139 -0.0294051 1.6748e-15)
(0.360802 -0.0363027 1.38105e-15)
(0.394631 -0.0442183 1.5195e-15)
(0.435527 -0.0533196 1.32568e-15)
(0.484515 -0.0637523 1.51154e-15)
(0.542729 -0.0756083 1.34923e-15)
(0.61136 -0.0888603 1.61984e-15)
(0.691585 -0.103247 1.67512e-15)
(0.784147 -0.118108 1.43222e-15)
(0.889443 -0.132135 1.70314e-15)
(1.00561 -0.143227 1.75364e-15)
(1.13116 -0.148277 1.67582e-15)
(1.25413 -0.143628 1.3766e-15)
(1.37924 -0.126556 9.60393e-16)
(0.879956 0.0871208 8.74083e-16)
(0.796687 0.107745 7.8292e-16)
(0.714937 0.114326 1.18327e-15)
(0.631587 0.109235 1.13965e-15)
(0.557511 0.0981292 5.13706e-16)
(0.492896 0.0845225 2.2326e-16)
(0.438722 0.0707053 3.81278e-16)
(0.394029 0.0578664 8.54245e-16)
(0.357842 0.0464904 5.5088e-16)
(0.328986 0.0366611 8.26492e-16)
(0.306419 0.0282505 1.54085e-15)
(0.289246 0.0210445 1.59544e-15)
(0.276743 0.0147977 1.61483e-15)
(0.268356 0.00926738 1.75095e-15)
(0.263692 0.00422446 1.31988e-15)
(0.262508 -0.000538932 1.31542e-15)
(0.264692 -0.0052177 1.29785e-15)
(0.270265 -0.00999239 1.73559e-15)
(0.279364 -0.0150356 1.78453e-15)
(0.29224 -0.0205144 1.45107e-15)
(0.309259 -0.0265989 1.7893e-15)
(0.330904 -0.0334617 1.78465e-15)
(0.357768 -0.0412825 1.3996e-15)
(0.390571 -0.0502464 1.64765e-15)
(0.430164 -0.0605415 1.35145e-15)
(0.477509 -0.0723317 1.63441e-15)
(0.533677 -0.0857242 1.37096e-15)
(0.599797 -0.100697 1.74337e-15)
(0.677 -0.116971 1.78521e-15)
(0.766031 -0.133824 1.4285e-15)
(0.867359 -0.149805 1.78529e-15)
(0.979291 -0.162531 1.83348e-15)
(1.1006 -0.168442 1.50458e-15)
(1.21941 -0.163238 1.1898e-15)
(1.34107 -0.143745 7.86526e-16)
(0.85369 0.0983666 6.38151e-16)
(0.770721 0.121044 6.97288e-16)
(0.691579 0.127731 9.58095e-16)
(0.611363 0.121468 9.38071e-16)
(0.54084 0.108748 5.61335e-16)
(0.479608 0.0934747 3.74662e-16)
(0.428415 0.0781165 4.89887e-16)
(0.386203 0.0639193 7.81231e-16)
(0.352 0.0513708 6.83619e-16)
(0.324685 0.0405354 9.14944e-16)
(0.303286 0.0312589 1.39085e-15)
(0.286975 0.0233002 1.50257e-15)
(0.275089 0.0163883 1.52476e-15)
(0.267119 0.0102566 1.56785e-15)
(0.262709 0.00465416 1.31147e-15)
(0.261638 -0.000646746 1.27585e-15)
(0.263812 -0.00585992 1.28705e-15)
(0.269256 -0.0111835 1.54028e-15)
(0.278106 -0.016807 1.57689e-15)
(0.290604 -0.0229134 1.40829e-15)
(0.307099 -0.0296891 1.58308e-15)
(0.328046 -0.0373228 1.57718e-15)
(0.354005 -0.0460101 1.37084e-15)
(0.385646 -0.0559531 1.47412e-15)
(0.423764 -0.0673571 1.32883e-15)
(0.469252 -0.0804024 1.46047e-15)
(0.523104 -0.0952106 1.34524e-15)
(0.586375 -0.111767 1.54238e-15)
(0.660134 -0.129784 1.56136e-15)
(0.745119 -0.148492 1.38456e-15)
(0.841862 -0.166319 1.55378e-15)
(0.948857 -0.180632 1.58223e-15)
(1.06518 -0.187414 1.35617e-15)
(1.17905 -0.181729 1.06066e-15)
(1.29657 -0.159832 6.72496e-16)
(0.823155 0.10938 4.79531e-16)
(0.740713 0.133824 6.06585e-16)
(0.664814 0.140306 8.06109e-16)
(0.588363 0.132728 8.02858e-16)
(0.521973 0.118387 5.91618e-16)
(0.464596 0.101539 4.81945e-16)
(0.416755 0.0847739 5.74713e-16)
(0.377305 0.0693604 7.66758e-16)
(0.345298 0.05577 7.77472e-16)
(0.319683 0.0440406 9.78374e-16)
(0.299571 0.0339905 1.31808e-15)
(0.28421 0.0253541 1.45018e-15)
(0.273003 0.0178376 1.46354e-15)
(0.265493 0.011154 1.45891e-15)
(0.261361 0.00503345 1.2974e-15)
(0.260415 -0.000768758 1.25309e-15)
(0.262575 -0.00648299 1.26765e-15)
(0.267874 -0.0123227 1.41356e-15)
(0.276447 -0.0184923 1.43793e-15)
(0.288523 -0.0251886 1.35185e-15)
(0.304434 -0.032612 1.44317e-15)
(0.324607 -0.0409646 1.44069e-15)
(0.34956 -0.0504555 1.32933e-15)
(0.379915 -0.0613005 1.37269e-15)
(0.416399 -0.0737188 1.29529e-15)
(0.45983 -0.0879044 1.35957e-15)
(0.511115 -0.103992 1.3031e-15)
(0.571217 -0.121974 1.4038e-15)
(0.641131 -0.141565 1.41075e-15)
(0.721567 -0.161962 1.3189e-15)
(0.813107 -0.181501 1.40297e-15)
(0.91444 -0.197329 1.41084e-15)
(1.02496 -0.204981 1.24831e-15)
(1.13309 -0.198886 9.73079e-16)
(1.24567 -0.174596 5.985e-16)
(0.788194 0.120065 3.75981e-16)
(0.706605 0.145934 5.30119e-16)
(0.634701 0.151863 6.87372e-16)
(0.562722 0.14284 7.13081e-16)
(0.501071 0.126903 6.12121e-16)
(0.44802 0.108607 5.6236e-16)
(0.403879 0.0905967 6.42645e-16)
(0.367448 0.0741303 7.84221e-16)
(0.337826 0.0596442 8.50254e-16)
(0.314051 0.0471444 1.03052e-15)
(0.295328 0.0364218 1.29036e-15)
(0.280993 0.0271891 1.43461e-15)
(0.270519 0.0191337 1.42744e-15)
(0.263505 0.011952 1.39503e-15)
(0.259674 0.00535844 1.28581e-15)
(0.258861 -0.000905526 1.24047e-15)
(0.261004 -0.00708427 1.25017e-15)
(0.266143 -0.0134042 1.32984e-15)
(0.274409 -0.0200823 1.34168e-15)
(0.286023 -0.0273272 1.29661e-15)
(0.301295 -0.0353506 1.3453e-15)
(0.320622 -0.0443655 1.34599e-15)
(0.344479 -0.0545914 1.28848e-15)
(0.373432 -0.066254 1.30516e-15)
(0.40814 -0.0795831 1.27048e-15)
(0.449333 -0.0947824 1.29468e-15)
(0.497819 -0.111997 1.2613e-15)
(0.554459 -0.13123 1.30673e-15)
(0.620148 -0.152198 1.30724e-15)
(0.695548 -0.174088 1.25067e-15)
(0.781271 -0.195168 1.29307e-15)
(0.876194 -0.21241 1.29043e-15)
(0.980067 -0.220912 1.18444e-15)
(1.08154 -0.214478 9.14632e-16)
(1.18831 -0.187784 5.65322e-16)
(0.748617 0.130288 3.0407e-16)
(0.668341 0.157189 4.714e-16)
(0.601323 0.162185 6.03574e-16)
(0.534607 0.151618 6.52663e-16)
(0.478319 0.134152 6.34533e-16)
(0.430052 0.114574 6.26275e-16)
(0.389935 0.0955122 7.06984e-16)
(0.356751 0.0781777 8.20364e-16)
(0.329676 0.0629569 9.09949e-16)
(0.307858 0.0498203 1.0793e-15)
(0.290612 0.0385335 1.29071e-15)
(0.277365 0.0287914 1.45167e-15)
(0.267669 0.0202669 1.41133e-15)
(0.261182 0.0126443 1.35967e-15)
(0.257669 0.00562615 1.28056e-15)
(0.256995 -0.00105713 1.23499e-15)
(0.259116 -0.00766113 1.2387e-15)
(0.264079 -0.0144226 1.27433e-15)
(0.272013 -0.0215689 1.27361e-15)
(0.283128 -0.0293178 1.24788e-15)
(0.29771 -0.0378901 1.27502e-15)
(0.316126 -0.0475065 1.27951e-15)
(0.338805 -0.0583937 1.25358e-15)
(0.366255 -0.0707837 1.26107e-15)
(0.399057 -0.0849121 1.24918e-15)
(0.437849 -0.100988 1.25117e-15)
(0.483331 -0.119164 1.2237e-15)
(0.536241 -0.139452 1.23696e-15)
(0.597356 -0.161577 1.2295e-15)
(0.667256 -0.184729 1.1924e-15)
(0.746552 -0.20714 1.20801e-15)
(0.834298 -0.225655 1.20195e-15)
(0.930599 -0.23496 1.14887e-15)
(1.02445 -0.228245 8.68982e-16)
(1.1244 -0.199104 5.66298e-16)
(0.704208 0.139865 2.54402e-16)
(0.625889 0.167356 4.17261e-16)
(0.564806 0.171021 5.46642e-16)
(0.504225 0.158862 6.1616e-16)
(0.453936 0.139992 6.5653e-16)
(0.410888 0.119346 6.78904e-16)
(0.375081 0.0994572 7.67075e-16)
(0.345337 0.0814603 8.63167e-16)
(0.320942 0.065679 9.64426e-16)
(0.301177 0.0520477 1.12851e-15)
(0.285475 0.0403106 1.30854e-15)
(0.273367 0.0301503 1.50149e-15)
(0.264484 0.0212301 1.40954e-15)
(0.258546 0.0132267 1.34144e-15)
(0.255364 0.00583464 1.28256e-15)
(0.254833 -0.00122322 1.23484e-15)
(0.256926 -0.00821085 1.23566e-15)
(0.261698 -0.0153728 1.23855e-15)
(0.269277 -0.0229444 1.22602e-15)
(0.279857 -0.0311501 1.2081e-15)
(0.293706 -0.0402171 1.22493e-15)
(0.311153 -0.0503709 1.23355e-15)
(0.332582 -0.0618417 1.22812e-15)
(0.358438 -0.0748635 1.23743e-15)
(0.389222 -0.0896733 1.23583e-15)
(0.425473 -0.106481 1.22716e-15)
(0.46777 -0.125441 1.19532e-15)
(0.516715 -0.146569 1.18767e-15)
(0.572939 -0.169604 1.16789e-15)
(0.636909 -0.19375 1.14028e-15)
(0.709185 -0.217235 1.14081e-15)
(0.788968 -0.236831 1.13597e-15)
(0.876707 -0.246853 1.13941e-15)
(0.96186 -0.239899 8.38347e-16)
(1.0538 -0.208222 6.03763e-16)
(0.65473 0.148536 2.37159e-16)
(0.579265 0.176144 3.76593e-16)
(0.525337 0.178082 5.00292e-16)
(0.471847 0.164358 5.92437e-16)
(0.428179 0.144284 6.82896e-16)
(0.390745 0.122836 7.22387e-16)
(0.359491 0.10238 8.29058e-16)
(0.333339 0.0839455 9.08399e-16)
(0.311723 0.0677889 1.01623e-15)
(0.294079 0.0538117 1.18162e-15)
(0.27997 0.0417427 1.33356e-15)
(0.269037 0.0312582 1.5935e-15)
(0.260992 0.0220179 1.41513e-15)
(0.255621 0.0136959 1.33307e-15)
(0.252779 0.00598268 1.2926e-15)
(0.252391 -0.00140304 1.23838e-15)
(0.25445 -0.00873083 1.24212e-15)
(0.259017 -0.0162503 1.21751e-15)
(0.266217 -0.0242022 1.19255e-15)
(0.276233 -0.0328153 1.17569e-15)
(0.289307 -0.0423204 1.18918e-15)
(0.305735 -0.0529446 1.20302e-15)
(0.325852 -0.064918 1.20979e-15)
(0.350038 -0.0784721 1.22446e-15)
(0.37871 -0.09384 1.22652e-15)
(0.412303 -0.111226 1.21197e-15)
(0.451265 -0.13078 1.17432e-15)
(0.496045 -0.15252 1.14659e-15)
(0.547104 -0.176191 1.11647e-15)
(0.604755 -0.201024 1.08812e-15)
(0.669448 -0.225272 1.08133e-15)
(0.740478 -0.245694 1.08137e-15)
(0.818587 -0.256291 1.1711e-15)
(0.893855 -0.249107 8.10797e-16)
(0.976397 -0.214741 6.63989e-16)
(0.599922 0.155932 2.32173e-16)
(0.528553 0.183186 3.49879e-16)
(0.483185 0.183039 4.63829e-16)
(0.437803 0.167892 5.76636e-16)
(0.401347 0.1469 7.12754e-16)
(0.369865 0.124975 7.65727e-16)
(0.343346 0.104242 8.92241e-16)
(0.320891 0.0856127 9.56312e-16)
(0.302118 0.0692744 1.06375e-15)
(0.286636 0.0551044 1.2381e-15)
(0.274151 0.0428239 1.35574e-15)
(0.264413 0.0321109 1.52732e-15)
(0.257223 0.0226275 1.415e-15)
(0.252427 0.0140504 1.32892e-15)
(0.249929 0.00607 1.3117e-15)
(0.249683 -0.00159553 1.24314e-15)
(0.2517 -0.00921852 1.25975e-15)
(0.256049 -0.0170509 1.20663e-15)
(0.26285 -0.0253367 1.16936e-15)
(0.272274 -0.034306 1.1516e-15)
(0.28454 -0.0441909 1.16435e-15)
(0.299906 -0.0552164 1.18415e-15)
(0.318659 -0.0676091 1.1979e-15)
(0.341113 -0.0815931 1.21647e-15)
(0.367597 -0.0973923 1.21644e-15)
(0.398438 -0.115199 1.19868e-15)
(0.433946 -0.13515 1.15876e-15)
(0.474404 -0.157256 1.11369e-15)
(0.520075 -0.181267 1.07885e-15)
(0.571072 -0.20644 1.04858e-15)
(0.627663 -0.231078 1.03548e-15)
(0.689157 -0.251987 1.04036e-15)
(0.756492 -0.262941 1.03915e-15)
(0.82054 -0.255481 7.67025e-16)
(0.892 -0.218177 5.58011e-16)
(0.539502 0.161535 2.32457e-16)
(0.473956 0.188024 3.30813e-16)
(0.438729 0.18553 4.33841e-16)
(0.402507 0.169248 5.63603e-16)
(0.37378 0.147735 7.616e-16)
(0.34851 0.125715 8.05464e-16)
(0.326839 0.105026 9.64091e-16)
(0.308132 0.0864554 9.98888e-16)
(0.292227 0.070134 1.10439e-15)
(0.278921 0.0559257 1.30689e-15)
(0.268068 0.0435548 1.378e-15)
(0.259533 0.032709 1.50599e-15)
(0.253202 0.0230598 1.41972e-15)
(0.248985 0.0142914 1.32412e-15)
(0.24683 0.00609859 1.34284e-15)
(0.246723 -0.00179784 1.24475e-15)
(0.24869 -0.00967002 1.29198e-15)
(0.252807 -0.0177697 1.20155e-15)
(0.259191 -0.0263415 1.15249e-15)
(0.268 -0.0356146 1.13316e-15)
(0.279428 -0.0458193 1.14799e-15)
(0.293698 -0.0571757 1.17408e-15)
(0.311046 -0.0699027 1.19482e-15)
(0.331719 -0.0842125 1.2109e-15)
(0.355961 -0.100314 1.19317e-15)
(0.383982 -0.118378 1.19294e-15)
(0.415953 -0.138524 1.14591e-15)
(0.451975 -0.160741 1.09373e-15)
(0.492091 -0.184774 1.05085e-15)
(0.536169 -0.2099 1.01981e-15)
(0.584206 -0.234486 1.00151e-15)
(0.635413 -0.255447 9.98848e-16)
(0.690759 -0.266432 9.52761e-16)
(0.742072 -0.25856 7.19799e-16)
(0.800375 -0.217928 4.90546e-16)
(0.473179 0.164728 2.32419e-16)
(0.415856 0.190144 3.09213e-16)
(0.392497 0.185175 4.05047e-16)
(0.366468 0.168237 5.43187e-16)
(0.345871 0.146717 8.32832e-16)
(0.326962 0.125041 8.33012e-16)
(0.310172 0.104738 1.05548e-15)
(0.295205 0.0864871 1.03461e-15)
(0.282149 0.0703816 1.13847e-15)
(0.271003 0.0562872 1.39509e-15)