/*--------------------------------*- C++ -*----------------------------------*\
| =========                 |                                                 |
| \\      /  F ield         | OpenFOAM: The Open Source CFD Toolbox           |
|  \\    /   O peration     | Version:  v1906                                 |
|   \\  /    A nd           | Web:      www.OpenFOAM.com                      |
|    \\/     M anipulation  |                                                 |
\*---------------------------------------------------------------------------*/
FoamFile
{
    version     2.0;
    format      ascii;
    class       volVectorField;
    location    "110";
    object      U;
}
// * * * * * * * * * * * * * * * * * * * * * * * * * * * * * * * * * * * * * //

dimensions      [0 1 -1 0 0 0 0];


internalField   nonuniform List<vector> 
2650
(
(0.0408133 -0.000258759 0)
(0.115054 -0.00138267 0)
(0.181381 -0.00312837 0)
(0.23941 -0.00529366 0)
(0.288878 -0.00770041 0)
(0.329617 -0.0102244 0)
(0.361525 -0.0127619 -5.31869e-18)
(0.384563 -0.0152156 5.31469e-18)
(0.398744 -0.0174927 -1.06215e-17)
(0.404133 -0.0195038 1.06128e-17)
(0.400845 -0.0211613 -1.06047e-17)
(0.389048 -0.0223781 1.05954e-17)
(0.368966 -0.0230663 1.05871e-17)
(0.340888 -0.0231351 -1.05771e-17)
(0.30518 -0.0224884 -1.05688e-17)
(0.262298 -0.021024 1.05581e-17)
(0.212811 -0.0186273 -1.05498e-17)
(0.15744 -0.0151435 -1.05424e-17)
(0.0971271 -0.0103193 2.10563e-17)
(0.033112 -0.00389396 0)
(0.0424657 -2.09034e-05 -4.27287e-19)
(0.118701 -0.000813969 6.29081e-19)
(0.186271 -0.00228168 0)
(0.24517 -0.00431732 0)
(0.295373 -0.00673856 0)
(0.336858 -0.00939913 0)
(0.369616 -0.0121777 -5.01871e-18)
(0.393655 -0.0149636 5.0154e-18)
(0.409006 -0.017651 0)
(0.415729 -0.0201364 0)
(0.413908 -0.0223161 0)
(0.403655 -0.0240831 0)
(0.38511 -0.0253236 0)
(0.358438 -0.0259123 -9.98151e-18)
(0.323828 -0.0257072 -1.28881e-21)
(0.281488 -0.0245433 9.96101e-18)
(0.231636 -0.0222177 -9.95309e-18)
(0.174492 -0.0184451 9.94073e-18)
(0.110265 -0.0128022 1.98677e-17)
(0.039086 -0.00494613 -1.34644e-17)
(0.0429687 -9.25961e-05 0)
(0.120326 -0.00103542 0)
(0.189018 -0.00274511 0)
(0.248979 -0.00510517 0)
(0.300164 -0.00793842 0)
(0.342547 -0.0110882 0)
(0.376119 -0.0144086 0)
(0.400893 -0.0177562 0)
(0.416898 -0.020988 0)
(0.424185 -0.0239612 0)
(0.422823 -0.0265322 0)
(0.4129 -0.0285549 0)
(0.394521 -0.0298793 9.69882e-18)
(0.367807 -0.0303495 1.58082e-21)
(0.332892 -0.0298021 1.81691e-21)
(0.289922 -0.028067 -9.67095e-18)
(0.239049 -0.0249638 0)
(0.180427 -0.0202824 0)
(0.114213 -0.0137457 1.92892e-17)
(0.0405427 -0.00511971 -1.30598e-17)
(0.0441739 -7.11036e-05 0)
(0.123644 -0.0010655 0)
(0.194197 -0.00290807 0)
(0.255801 -0.00548338 0)
(0.308432 -0.00859387 -4.72343e-18)
(0.352082 -0.0120629 4.72092e-18)
(0.386753 -0.015726 0)
(0.412461 -0.0194207 0)
(0.429233 -0.0229842 -9.42365e-18)
(0.437108 -0.0262538 1.88333e-17)
(0.436139 -0.0290661 9.2619e-22)
(0.426386 -0.0312563 -9.40157e-18)
(0.407925 -0.0326577 0)
(0.380836 -0.0331005 0)
(0.34521 -0.0324119 0)
(0.301141 -0.0304171 0)
(0.248729 -0.0269374 9.3616e-18)
(0.188075 -0.0217713 -2.80549e-17)
(0.119284 -0.0146639 1.86802e-17)
(0.0424482 -0.00542556 1.26419e-17)
(0.0453573 -9.39593e-05 -3.87526e-19)
(0.126988 -0.00118307 5.72163e-19)
(0.199485 -0.00317544 0)
(0.26281 -0.0059412 0)
(0.316939 -0.00927012 -4.56997e-18)
(0.361862 -0.0129739 4.56756e-18)
(0.397579 -0.0168754 -4.56473e-18)
(0.424105 -0.0207986 9.12363e-18)
(0.441464 -0.0245671 -4.55861e-18)
(0.449689 -0.0280048 -9.11137e-18)
(0.448826 -0.0309361 9.1037e-18)
(0.43893 -0.0331858 0)
(0.420063 -0.034579 0)
(0.392298 -0.0349412 0)
(0.355713 -0.0340986 -9.0749e-18)
(0.310396 -0.0318803 9.06443e-18)
(0.256438 -0.0281177 0)
(0.19394 -0.0226264 0)
(0.123013 -0.0151748 0)
(0.0437709 -0.00558508 1.2221e-17)
(0.0467804 -8.7334e-05 0)
(0.130953 -0.00121164 0)
(0.205698 -0.00328385 0)
(0.270984 -0.00617172 0)
(0.326795 -0.00965301 -4.41359e-18)
(0.373122 -0.0135278 4.41127e-18)
(0.40997 -0.0176086 0)
(0.437353 -0.0217094 0)
(0.455293 -0.0256442 0)
(0.463826 -0.0292277 8.79959e-18)
(0.462992 -0.0322759 1.0287e-21)
(0.452842 -0.0346058 -8.78522e-18)
(0.433438 -0.0360361 8.77953e-18)
(0.404846 -0.0363867 -8.77045e-18)
(0.367143 -0.0354796 0)
(0.320412 -0.0331413 0)
(0.264746 -0.029201 8.74869e-18)
(0.200244 -0.023473 -8.73743e-18)
(0.127022 -0.0157242 0)
(0.0452005 -0.00578159 1.17934e-17)
(0.0483039 -0.000100305 0)
(0.135205 -0.00127891 0)
(0.212364 -0.00343852 0)
(0.279756 -0.00643878 0)
(0.337364 -0.0100505 -4.2556e-18)
(0.385184 -0.0140673 4.25337e-18)
(0.423222 -0.0182949 0)
(0.451492 -0.0225402 0)
(0.470019 -0.0266101 0)
(0.478836 -0.0303122 8.48471e-18)
(0.477988 -0.0334558 1.06487e-21)
(0.467525 -0.0358517 -8.47088e-18)
(0.447508 -0.0373129 0)
(0.418005 -0.0376542 0)
(0.379093 -0.0366937 0)
(0.330857 -0.0342541 0)
(0.273389 -0.0301626 8.43617e-18)
(0.206793 -0.0242316 -8.42524e-18)
(0.131184 -0.0162246 0)
(0.0466859 -0.0059614 1.13628e-17)
(0.0498566 -9.09875e-05 -3.46337e-19)
(0.139577 -0.00129334 5.12691e-19)
(0.219255 -0.00351394 0)
(0.288854 -0.00661228 0)
(0.348353 -0.0103492 4.09461e-18)
(0.397745 -0.0145088 -4.09248e-18)
(0.437032 -0.0188883 0)
(0.46623 -0.0232868 0)
(0.485363 -0.0275037 0)
(0.494466 -0.0313394 -8.16377e-18)
(0.493582 -0.0345961 8.15684e-18)
(0.482766 -0.0370782 0)
(0.46208 -0.0385921 0)
(0.431596 -0.0389466 0)
(0.391394 -0.0379538 -8.13214e-18)
(0.341565 -0.0354306 8.1226e-18)
(0.282208 -0.0311982 0)
(0.213433 -0.0250616 0)
(0.135372 -0.0167767 0)
(0.0481606 -0.00616501 1.09253e-17)
(0.051711 -0.000114554 0)
(0.14471 -0.00138949 0)
(0.227262 -0.00371607 1.96819e-18)
(0.299347 -0.00694088 -1.96743e-18)
(0.360956 -0.0108182 0)
(0.412089 -0.0151269 3.93011e-18)
(0.452754 -0.0196586 -3.92781e-18)
(0.482972 -0.0242061 0)
(0.50277 -0.0285621 -7.84568e-18)
(0.512187 -0.0325205 -8.60104e-22)
(0.51127 -0.0358771 1.56686e-17)
(0.500074 -0.0384298 1.43543e-21)
(0.478665 -0.039979 -7.82144e-18)
(0.447115 -0.0403279 0)
(0.405505 -0.039283 0)
(0.353925 -0.0366567 0)
(0.292471 -0.0322663 0)
(0.221247 -0.0259134 -1.558e-17)
(0.140373 -0.0173471 1.55586e-17)
(0.0499673 -0.00637156 0)
(0.053345 -8.60008e-05 0)
(0.149376 -0.00136459 -9.42887e-19)
(0.234675 -0.00374111 2.82742e-18)
(0.309189 -0.0070683 -1.88411e-18)
(0.372887 -0.0110862 0)
(0.425758 -0.0155594 3.76354e-18)
(0.467802 -0.0202681 -7.52265e-18)
(0.499036 -0.0249955 3.75886e-18)
(0.519485 -0.0295252 0)
(0.52919 -0.0336428 -7.5081e-18)
(0.528199 -0.0371362 7.5017e-18)
(0.516573 -0.0397955 7.49745e-18)
(0.494383 -0.0414134 -7.49006e-18)
(0.461708 -0.0417857 0)
(0.418641 -0.0407115 0)
(0.365282 -0.0379958 0)
(0.301745 -0.0334477 0)
(0.228158 -0.026859 0)
(0.144672 -0.0179705 1.49083e-17)
(0.0514479 -0.00660238 -1.00328e-17)
(0.0557716 -0.000145855 -3.03764e-19)
(0.155986 -0.00156577 4.50753e-19)
(0.244877 -0.00412051 1.80171e-18)
(0.322447 -0.00763194 -1.80102e-18)
(0.388705 -0.0118329 0)
(0.443666 -0.0164861 3.59764e-18)
(0.487352 -0.0213684 -3.59554e-18)
(0.519793 -0.0262586 3.5934e-18)
(0.541028 -0.0309354 -3.59081e-18)
(0.551101 -0.0351788 0)
(0.550068 -0.0387703 0)
(0.537991 -0.0414933 7.1678e-18)
(0.51494 -0.0431337 -1.43233e-17)
(0.480996 -0.0434798 7.15505e-18)
(0.436244 -0.0423243 0)
(0.380779 -0.0394668 0)
(0.314698 -0.0347141 0)
(0.238106 -0.0278594 0)
(0.151112 -0.0186401 -1.42557e-17)
(0.0538188 -0.00683809 -2.51597e-21)
(0.0573414 -6.36032e-05 0)
(0.160568 -0.0013839 0)
(0.252241 -0.00386567 1.71441e-18)
(0.3323 -0.00736075 -1.71376e-18)
(0.400712 -0.0115896 -3.4251e-18)
(0.457469 -0.0163024 6.84648e-18)
(0.502578 -0.0212704 -3.42115e-18)
(0.536056 -0.0262705 0)
(0.557936 -0.0310805 0)
(0.568258 -0.0354785 -6.82933e-18)
(0.567074 -0.0392416 6.82349e-18)
(0.554447 -0.0421455 6.82006e-18)
(0.530456 -0.0439638 -6.81329e-18)
(0.495193 -0.0444683 6.81026e-18)
(0.448771 -0.0434307 -6.80258e-18)
(0.391323 -0.040626 0)
(0.323005 -0.0358327 0)
(0.244004 -0.0288127 0)
(0.154542 -0.0192852 1.35669e-17)
(0.0548653 -0.00709092 -9.11628e-18)
(0.060669 -0.000199046 0)
(0.169369 -0.00171086 0)
(0.265573 -0.00432051 1.63011e-18)
(0.349412 -0.00782151 -1.6295e-18)
(0.420996 -0.0119543 3.25704e-18)
(0.480412 -0.0165062 2.22019e-23)
(0.527731 -0.0212853 -3.25348e-18)
(0.563007 -0.0261029 0)
(0.586279 -0.0307685 0)
(0.597575 -0.0350861 -6.49654e-18)
(0.596913 -0.0388508 6.49094e-18)
(0.584308 -0.0418455 6.48881e-18)
(0.559775 -0.0438384 -1.29671e-17)
(0.52334 -0.0445813 6.4779e-18)
(0.475039 -0.0438116 0)
(0.414933 -0.0412567 0)
(0.343108 -0.0366412 0)
(0.259683 -0.0296749 0)
(0.164821 -0.0200176 1.29164e-17)
(0.0587037 -0.00738525 -8.67293e-18)
(0.0611957 3.60882e-05 -2.58466e-19)
(0.170996 -0.00051716 3.84371e-19)
(0.26832 -0.00164036 -1.53661e-18)
(0.353308 -0.00328647 1.53602e-18)
(0.42608 -0.00532889 -3.07016e-18)
(0.486733 -0.0076725 1.11526e-22)
(0.535333 -0.0102496 3.06658e-18)
(0.571909 -0.0130039 0)
(0.596457 -0.0158803 0)
(0.608934 -0.0188162 6.12047e-18)
(0.609268 -0.0217327 -6.11512e-18)
(0.597362 -0.0245234 -6.11136e-18)
(0.573104 -0.0270414 6.10524e-18)
(0.536391 -0.029085 -6.10233e-18)
(0.487148 -0.0303807 6.09547e-18)
(0.425371 -0.0305646 0)
(0.351178 -0.0291449 6.0908e-18)
(0.264896 -0.0254254 -6.08278e-18)
(0.167166 -0.018462 0)
(0.0590105 -0.00760257 -8.17072e-18)
(0.0612974 -0.000125004 0)
(0.170899 -0.000172405 0)
(0.268098 6.59356e-05 0)
(0.353464 0.000674251 0)
(0.427447 0.00163829 2.89074e-18)
(0.490388 0.00289463 -2.88915e-18)
(0.542525 0.00435591 0)
(0.583997 0.00591974 0)
(0.614836 0.00747397 0)
(0.634957 0.00890163 -5.77206e-18)
(0.644146 0.0100858 1.15368e-17)
(0.642033 0.0109147 -5.76436e-18)
(0.628069 0.0112884 0)
(0.601474 0.0111254 0)
(0.56119 0.0103717 0)
(0.505801 0.00901209 0)
(0.433436 0.00710951 0)
(0.34168 0.0048931 0)
(0.227477 0.002796 0)
(0.0867436 0.000704283 0)
(0.0568808 0.000470507 0)
(0.157883 0.00369861 0)
(0.247162 0.00937336 0)
(0.32554 0.0171987 0)
(0.393598 0.0267889 0)
(0.451745 0.0378721 0)
(0.500264 0.0502291 0)
(0.539344 0.0636568 0)
(0.56909 0.0779575 0)
(0.58954 0.0929306 0)
(0.600663 0.108362 0)
(0.602375 0.124008 0)
(0.594535 0.139578 0)
(0.576951 0.154704 0)
(0.549385 0.168894 0)
(0.511561 0.181479 0)
(0.463165 0.19164 0)
(0.403851 0.198663 0)
(0.333219 0.201348 0)
(0.250759 0.194346 0)
(0.0506637 0.000354682 0)
(0.141872 0.00432061 0)
(0.223227 0.0114678 0)
(0.29502 0.0214302 0)
(0.357503 0.0336326 0)
(0.410875 0.0476549 0)
(0.455285 0.0631627 0)
(0.49084 0.0798517 0)
(0.517607 0.0974274 0)
(0.53562 0.115594 0)
(0.544893 0.134043 0)
(0.545426 0.152436 0)
(0.537225 0.170392 0)
(0.520324 0.18747 0)
(0.494813 0.203137 0)
(0.460892 0.216748 0)
(0.418935 0.227565 0)
(0.369558 0.234846 0)
(0.31365 0.237494 0)
(0.252684 0.232423 0)
(0.0442485 0.000404022 0)
(0.124671 0.00462569 0)
(0.197044 0.0122812 0)
(0.261406 0.0229759 0)
(0.317806 0.036083 0)
(0.366301 0.0511177 0)
(0.406946 0.0676726 0)
(0.439797 0.085366 0)
(0.464911 0.103824 0)
(0.482352 0.122672 0)
(0.492201 0.141522 0)
(0.494564 0.159965 0)
(0.48959 0.177557 0)
(0.477492 0.19381 0)
(0.458569 0.208184 0)
(0.433249 0.220083 0)
(0.402127 0.228867 0)
(0.366009 0.233872 0)
(0.32593 0.234342 0)
(0.283312 0.229143 0)
(0.0378101 0.000356128 0)
(0.107333 0.00431446 0)
(0.170559 0.0115728 0)
(0.227321 0.0217689 0)
(0.277512 0.0342976 0)
(0.321069 0.0486718 0)
(0.357965 0.0644686 0)
(0.388206 0.0812851 0)
(0.41183 0.0987258 0)
(0.428908 0.116398 0)
(0.439557 0.133907 0)
(0.443937 0.150849 0)
(0.442273 0.166808 0)
(0.434861 0.181356 0)
(0.422088 0.194051 0)
(0.404452 0.204447 0)
(0.382578 0.21211 0)
(0.357237 0.216628 0)
(0.329358 0.21759 0)
(0.300037 0.214362 0)
(0.0320904 0.00030892 0)
(0.0917489 0.00378467 0)
(0.146592 0.0102107 0)
(0.196356 0.0192802 0)
(0.24085 0.0304604 0)
(0.279943 0.0433085 0)
(0.313558 0.0574295 0)
(0.341663 0.0724415 0)
(0.364272 0.087969 0)
(0.38145 0.103643 0)
(0.393308 0.119097 0)
(0.400012 0.13397 0)
(0.401787 0.147906 0)
(0.39892 0.160552 0)
(0.391772 0.171568 0)
(0.380778 0.180638 0)
(0.366455 0.18748 0)
(0.349403 0.191859 0)
(0.330297 0.193545 0)
(0.309876 0.19202 0)
(0.027225 0.000248699 0)
(0.0783761 0.00314428 0)
(0.125903 0.00854927 0)
(0.169505 0.0162224 0)
(0.208956 0.0257229 0)
(0.244094 0.0366753 0)
(0.274809 0.0487373 0)
(0.301044 0.0615746 0)
(0.322793 0.0748578 0)
(0.340096 0.0882643 0)
(0.353045 0.10148 0)
(0.361782 0.1142 0)
(0.366496 0.126133 0)
(0.367433 0.137 0)
(0.364887 0.146544 0)
(0.359207 0.154537 0)
(0.350788 0.160794 0)
(0.340072 0.165167 0)
(0.327536 0.167496 0)
(0.313674 0.167272 0)
(0.0232804 0.000196141 0)
(0.0674247 0.00252927 0)
(0.108844 0.00692222 0)
(0.147248 0.0131944 0)
(0.18241 0.0209984 0)
(0.21416 0.0300316 0)
(0.242376 0.0400135 0)
(0.266986 0.050667 0)
(0.287964 0.0617183 0)
(0.305328 0.0728993 0)
(0.31914 0.0839513 0)
(0.329504 0.0946264 0)
(0.336567 0.104691 0)
(0.340516 0.113927 0)
(0.341574 0.122139 0)
(0.340004 0.129158 0)
(0.336097 0.134853 0)
(0.33017 0.139123 0)
(0.322559 0.141837 0)
(0.313608 0.142486 0)
(0.0201595 0.000150265 0)
(0.0586844 0.00198311 0)
(0.0951435 0.00546332 0)
(0.129276 0.0104614 0)
(0.160873 0.0167123 0)
(0.189771 0.0239818 0)
(0.215852 0.0320488 0)
(0.239034 0.040693 0)
(0.259277 0.0496949 0)
(0.276579 0.0588399 0)
(0.290976 0.0679209 0)
(0.302535 0.0767408 0)
(0.311361 0.0851149 0)
(0.317588 0.0928736 0)
(0.321378 0.0998651 0)
(0.32292 0.105961 0)
(0.322424 0.111063 0)
(0.320116 0.115094 0)
(0.316235 0.11794 0)
(0.311024 0.119104 0)
(0.0177449 0.000113486 0)
(0.0518651 0.00152652 0)
(0.0843871 0.00423029 0)
(0.115088 0.00813484 0)
(0.143786 0.0130435 0)
(0.170333 0.0187798 0)
(0.194616 0.0251751 0)
(0.216555 0.0320591 0)
(0.236103 0.0392613 0)
(0.253241 0.0466141 0)
(0.267981 0.0539554 0)
(0.280366 0.0611309 0)
(0.29046 0.0679964 0)
(0.298357 0.0744197 0)
(0.304168 0.0802824 0)
(0.308028 0.0854843 0)
(0.310083 0.0899503 0)
(0.310496 0.0936189 0)
(0.309435 0.0963838 0)
(0.307075 0.0977769 0)
(0.0159059 8.43474e-05 0)
(0.0466325 0.00115568 0)
(0.0760866 0.00322008 0)
(0.104083 0.00621687 0)
(0.130465 0.0100031 0)
(0.155106 0.014449 0)
(0.177904 0.0194289 0)
(0.198781 0.0248146 0)
(0.217686 0.0304766 0)
(0.234592 0.0362866 0)
(0.249495 0.0421204 0)
(0.262415 0.0478589 0)
(0.27339 0.0533909 0)
(0.28248 0.0586138 0)
(0.28976 0.0634355 0)
(0.295322 0.0677775 0)
(0.299269 0.0715811 0)
(0.301714 0.0747963 0)
(0.302777 0.0773266 0)
(0.302586 0.0787365 0)
(0.0145283 6.17344e-05 0)
(0.0426861 0.000859552 0)
(0.0697931 0.0024066 0)
(0.0956975 0.00466303 0)
(0.120269 0.00752699 0)
(0.143397 0.0109051 0)
(0.164993 0.0147059 0)
(0.184984 0.0188348 0)
(0.20332 0.0231957 0)
(0.219967 0.0276925 0)
(0.234913 0.0322317 0)
(0.248159 0.0367232 0)
(0.259727 0.0410822 0)
(0.269652 0.0452304 0)
(0.277981 0.0490965 0)
(0.284776 0.0526198 0)
(0.290108 0.055755 0)
(0.294056 0.0584617 0)
(0.296706 0.0606527 0)
(0.298149 0.0619285 0)
(0.0135165 4.41477e-05 0)
(0.0397701 0.00062383 0)
(0.0651213 0.0017542 0)
(0.0894454 0.00340987 0)
(0.112634 0.00551998 0)
(0.134592 0.00801898 0)
(0.155243 0.0108419 0)
(0.17452 0.0139208 0)
(0.192374 0.0171861 0)
(0.208771 0.0205676 0)
(0.22369 0.0239965 0)
(0.237125 0.0274062 0)
(0.249081 0.0307339 0)
(0.259577 0.0339205 0)
(0.268643 0.0369125 0)
(0.276318 0.0396638 0)
(0.282651 0.0421404 0)
(0.287695 0.044311 0)
(0.291512 0.0460977 0)
(0.294169 0.047135 0)
(0.0127959 3.03594e-05 0)
(0.0376823 0.000434736 0)
(0.0617622 0.00122723 0)
(0.0849326 0.00239232 0)
(0.107102 0.00388253 0)
(0.12819 0.00565345 0)
(0.148127 0.00766057 0)
(0.166854 0.0098569 0)
(0.184326 0.0121937 0)
(0.200506 0.0146216 0)
(0.215371 0.0170919 0)
(0.228908 0.0195572 0)
(0.241113 0.0219722 0)
(0.251994 0.0242946 0)
(0.261568 0.0264853 0)
(0.269858 0.0285109 0)
(0.276898 0.0303479 0)
(0.282724 0.0319728 0)
(0.287379 0.033317 0)
(0.290914 0.034045 0)
(0.0123104 1.92843e-05 0)
(0.0362685 0.000279941 0)
(0.0594793 0.000793252 0)
(0.0818551 0.00155045 0)
(0.103318 0.00252188 0)
(0.123797 0.00367945 0)
(0.14323 0.00499456 0)
(0.161566 0.00643671 0)
(0.178759 0.00797393 0)
(0.194774 0.0095737 0)
(0.209587 0.0112036 0)
(0.22318 0.0128321 0)
(0.235544 0.0144288 0)
(0.246679 0.0159653 0)
(0.256593 0.017415 0)
(0.265301 0.0187559 0)
(0.272823 0.0199736 0)
(0.279185 0.0210525 0)
(0.284419 0.0219323 0)
(0.288561 0.0223013 0)
(0.01202 1.00636e-05 0)
(0.0354182 0.000148945 0)
(0.0581008 0.000424208 0)
(0.0799913 0.000831782 0)
(0.10102 0.00135611 0)
(0.121124 0.00198199 0)
(0.140247 0.00269359 0)
(0.15834 0.00347374 0)
(0.175362 0.00430423 0)
(0.191277 0.00516642 0)
(0.20606 0.00604163 0)
(0.219692 0.00691163 0)
(0.23216 0.00775892 0)
(0.243459 0.00856696 0)
(0.253592 0.0093205 0)
(0.262566 0.0100073 0)
(0.270396 0.0106219 0)
(0.2771 0.0111563 0)
(0.282701 0.0115574 0)
(0.287227 0.01153 0)
(0.0118981 1.97239e-06 0)
(0.0350572 3.28549e-05 0)
(0.0575116 9.60854e-05 0)
(0.0791912 0.000191084 0)
(0.100032 0.000314059 0)
(0.119974 0.000460582 0)
(0.138967 0.000625492 0)
(0.156963 0.000802885 0)
(0.173921 0.000986329 0)
(0.189809 0.00116912 0)
(0.2046 0.00134451 0)
(0.218272 0.00150596 0)
(0.230813 0.00164731 0)
(0.242215 0.00176281 0)
(0.252476 0.0018473 0)
(0.2616 0.00189785 0)
(0.269598 0.00191734 0)
(0.276484 0.00190512 0)
(0.282276 0.00181465 0)
(0.286998 0.00135847 0)
(0.0119297 -5.57462e-06 0)
(0.035143 -7.59182e-05 0)
(0.057645 -0.000211779 0)
(0.079368 -0.000410821 0)
(0.10025 -0.000666222 0)
(0.120234 -0.000972769 0)
(0.139268 -0.00132606 0)
(0.157309 -0.00172185 0)
(0.174315 -0.00215597 0)
(0.190253 -0.00262426 0)
(0.205097 -0.00312257 0)
(0.218826 -0.00364669 0)
(0.231425 -0.0041923 0)
(0.242885 -0.0047551 0)
(0.253204 -0.00533075 0)
(0.262384 -0.00591328 0)
(0.270433 -0.00649156 0)
(0.277364 -0.00705891 0)
(0.283194 -0.00765665 0)
(0.287943 -0.0085729 0)
(0.0121095 -1.31072e-05 0)
(0.0356603 -0.000184049 0)
(0.0584768 -0.000517616 0)
(0.0804898 -0.00100859 0)
(0.101636 -0.00163972 0)
(0.121859 -0.0023964 0)
(0.141107 -0.00326494 0)
(0.159334 -0.00423132 0)
(0.1765 -0.00528107 0)
(0.192571 -0.00639957 0)
(0.207521 -0.00757213 0)
(0.221329 -0.0087841 0)
(0.23398 -0.010021 0)
(0.245465 -0.0112687 0)
(0.255783 -0.0125135 0)
(0.264936 -0.0137407 0)
(0.272931 -0.0149309 0)
(0.279783 -0.0160699 0)
(0.285509 -0.0171949 0)
(0.290129 -0.0186037 0)
(0.012441 -2.10783e-05 0)
(0.0366186 -0.000297581 0)
(0.060021 -0.000838004 0)
(0.0825748 -0.00163384 0)
(0.104214 -0.00265669 0)
(0.124877 -0.00388199 0)
(0.144511 -0.00528636 0)
(0.163069 -0.00684554 0)
(0.18051 -0.00853449 0)
(0.1968 -0.0103278 0)
(0.211911 -0.0121998 0)
(0.225823 -0.0141254 0)
(0.238524 -0.0160795 0)
(0.250005 -0.018038 0)
(0.260265 -0.0199779 0)
(0.269311 -0.0218754 0)
(0.277151 -0.0237024 0)
(0.283802 -0.025437 0)
(0.289286 -0.0271135 0)
(0.293623 -0.029048 0)
(0.0129359 -2.99461e-05 0)
(0.0380498 -0.000422296 0)
(0.0623274 -0.00118875 0)
(0.0856876 -0.00231663 0)
(0.108058 -0.00376482 0)
(0.129373 -0.0054975 0)
(0.149575 -0.00748041 0)
(0.168615 -0.00967799 0)
(0.18645 -0.0120535 0)
(0.203044 -0.0145698 0)
(0.218372 -0.0171895 0)
(0.232414 -0.0198759 0)
(0.245159 -0.0225929 0)
(0.256602 -0.0253058 0)
(0.266745 -0.0279814 0)
(0.275598 -0.0305865 0)
(0.283175 -0.0330837 0)
(0.289498 -0.0354433 0)
(0.294592 -0.0376974 0)
(0.298484 -0.0401892 0)
(0.0136138 -4.01549e-05 0)
(0.0400081 -0.000563975 0)
(0.0654799 -0.00158558 0)
(0.0899373 -0.00308678 0)
(0.113299 -0.00501126 0)
(0.135493 -0.00730985 0)
(0.156457 -0.00993546 0)
(0.176137 -0.0128394 0)
(0.194488 -0.0159715 0)
(0.211475 -0.0192812 0)
(0.227072 -0.022718 0)
(0.241263 -0.0262321 0)
(0.254038 -0.0297752 0)
(0.265399 -0.0333007 0)
(0.275352 -0.0367646 0)
(0.283912 -0.0401234 0)
(0.291103 -0.0433297 0)
(0.296952 -0.0463453 0)
(0.301494 -0.0492012 0)
(0.304763 -0.0522755 0)
(0.0145025 -5.22055e-05 0)
(0.0425704 -0.000728694 0)
(0.0695976 -0.00204489 0)
(0.0954783 -0.00397509 0)
(0.12012 -0.00644438 0)
(0.143442 -0.00938718 0)
(0.165376 -0.0127409 0)
(0.185863 -0.0164411 0)
(0.204856 -0.0204217 0)
(0.222321 -0.0246163 0)
(0.238233 -0.028959 0)
(0.252579 -0.0333853 0)
(0.265356 -0.0378325 0)
(0.27657 -0.0422408 0)
(0.286237 -0.046554 0)
(0.294381 -0.0507171 0)
(0.301035 -0.0546718 0)
(0.306239 -0.0583709 0)
(0.310037 -0.0618449 0)
(0.312477 -0.065514 0)
(0.0156387 -6.66374e-05 0)
(0.0458375 -0.000923027 0)
(0.074836 -0.00258419 0)
(0.102511 -0.00501425 0)
(0.128758 -0.00811503 0)
(0.153484 -0.0118006 0)
(0.176614 -0.0159892 0)
(0.198084 -0.0205972 0)
(0.217847 -0.0255392 0)
(0.235869 -0.03073 0)
(0.252128 -0.0360853 0)
(0.266617 -0.0415232 0)
(0.279341 -0.0469644 0)
(0.290315 -0.0523339 0)
(0.299568 -0.0575612 0)
(0.307135 -0.0625787 0)
(0.313064 -0.0673159 0)
(0.317408 -0.0717157 0)
(0.320231 -0.075809 0)
(0.321593 -0.0800634 0)
(0.0170687 -8.40908e-05 0)
(0.0499359 -0.00115421 0)
(0.0813895 -0.00322245 0)
(0.111286 -0.00623916 0)
(0.139504 -0.010077 0)
(0.165941 -0.0146244 0)
(0.190512 -0.019776 0)
(0.213151 -0.0254243 0)
(0.23381 -0.0314608 0)
(0.252455 -0.0377771 0)
(0.269074 -0.0442673 0)
(0.283665 -0.0508285 0)
(0.296245 -0.0573619 0)
(0.306845 -0.0637746 0)
(0.315506 -0.0699797 0)
(0.322284 -0.075895 0)
(0.327245 -0.0814361 0)
(0.330462 -0.0865355 0)
(0.33202 -0.091225 0)
(0.332001 -0.0960226 0)
(0.0188496 -0.000105281 0)
(0.0550202 -0.00143002 0)
(0.0894935 -0.00397967 0)
(0.122103 -0.00768609 0)
(0.152709 -0.0123852 0)
(0.181197 -0.0179337 0)
(0.207475 -0.0241966 0)
(0.231473 -0.0310375 0)
(0.253144 -0.0383192 0)
(0.272462 -0.0459061 0)
(0.289421 -0.0536657 0)
(0.304034 -0.0614701 0)
(0.316332 -0.0691976 0)
(0.326364 -0.0767338 0)
(0.334196 -0.0839728 0)
(0.339904 -0.0908151 0)
(0.343581 -0.0971611 0)
(0.345328 -0.102931 0)
(0.345257 -0.108158 0)
(0.34348 -0.113411 0)
(0.0210497 -0.000130984 0)
(0.0612735 -0.00175827 0)
(0.0994247 -0.0048753 0)
(0.135311 -0.00938945 0)
(0.168775 -0.0150909 0)
(0.199689 -0.0217968 0)
(0.227957 -0.029336 0)
(0.253506 -0.0375371 0)
(0.276295 -0.0462285 0)
(0.296306 -0.0552414 0)
(0.313546 -0.064412 0)
(0.328046 -0.0735827 0)
(0.339858 -0.082604 0)
(0.349058 -0.091336 0)
(0.355737 -0.0996501 0)
(0.360006 -0.107427 0)
(0.361989 -0.114548 0)
(0.361826 -0.120921 0)
(0.359665 -0.12658 0)
(0.355655 -0.132138 0)
(0.0237485 -0.000162009 0)
(0.0689056 -0.00214557 0)
(0.111496 -0.00592462 0)
(0.151302 -0.0113747 0)
(0.188148 -0.0182298 0)
(0.221899 -0.0262591 0)
(0.252454 -0.0352482 0)
(0.279743 -0.0449836 0)
(0.303734 -0.0552533 0)
(0.324421 -0.0658496 0)
(0.34183 -0.0765715 0)
(0.356016 -0.0872261 0)
(0.367059 -0.0976308 0)
(0.375067 -0.107615 0)
(0.380168 -0.117023 0)
(0.382515 -0.12571 0)
(0.382275 -0.133537 0)
(0.379637 -0.140396 0)
(0.374797 -0.146317 0)
(0.367959 -0.151949 0)
(0.0270327 -0.000198723 0)
(0.0781405 -0.00259415 0)
(0.126037 -0.00713078 0)
(0.170482 -0.0136441 0)
(0.211288 -0.0218006 0)
(0.248314 -0.031313 0)
(0.281461 -0.0419165 0)
(0.31067 -0.0533496 0)
(0.335918 -0.0653538 0)
(0.35722 -0.0776769 0)
(0.374626 -0.0900748 0)
(0.38822 -0.102314 0)
(0.398117 -0.114172 0)
(0.404464 -0.125441 0)
(0.407437 -0.135932 0)
(0.407238 -0.145467 0)
(0.404095 -0.153882 0)
(0.398257 -0.161046 0)
(0.389988 -0.166984 0)
(0.379563 -0.172349 0)
(0.0309914 -0.000241551 0)
(0.0892005 -0.00309872 0)
(0.143365 -0.00847439 0)
(0.193234 -0.0161554 0)
(0.238617 -0.0257308 0)
(0.279377 -0.0368498 0)
(0.315426 -0.0491919 0)
(0.346718 -0.0624435 0)
(0.37325 -0.0762955 0)
(0.395062 -0.0904469 0)
(0.412231 -0.104606 0)
(0.424874 -0.118493 0)
(0.433148 -0.131839 0)
(0.437243 -0.144392 0)
(0.437392 -0.155917 0)
(0.433858 -0.166197 0)
(0.426942 -0.175028 0)
(0.416973 -0.182251 0)
(0.404306 -0.18787 0)
(0.389318 -0.192493 0)
(0.035689 -0.000287557 0)
(0.102238 -0.00363453 0)
(0.163688 -0.00988881 0)
(0.219795 -0.018782 0)
(0.270384 -0.0298191 0)
(0.315337 -0.0425828 0)
(0.354585 -0.0566958 0)
(0.388107 -0.071792 0)
(0.415925 -0.0875121 0)
(0.438105 -0.103506 0)
(0.454755 -0.119433 0)
(0.466026 -0.134961 0)
(0.472112 -0.149773 0)
(0.473253 -0.16356 0)
(0.469735 -0.176032 0)
(0.461893 -0.186915 0)
(0.45011 -0.195949 0)
(0.434817 -0.202925 0)
(0.416491 -0.207798 0)
(0.395653 -0.211043 0)
(0.0411692 -0.00033795 0)
(0.117327 -0.00416339 0)
(0.187076 -0.0112575 0)
(0.250215 -0.0212931 0)
(0.306612 -0.0336935 0)
(0.356189 -0.0479791 0)
(0.398914 -0.0637223 0)
(0.4348 -0.0805112 0)
(0.463898 -0.0979433 0)
(0.486302 -0.115625 0)
(0.502146 -0.133172 0)
(0.511605 -0.150204 0)
(0.514903 -0.166349 0)
(0.512313 -0.181239 0)
(0.504166 -0.194513 0)
(0.490858 -0.205821 0)
(0.472857 -0.214819 0)
(0.450704 -0.221215 0)
(0.425029 -0.224852 0)
(0.396569 -0.225907 0)
(0.0473199 -0.000372396 0)
(0.134159 -0.00458258 0)
(0.21304 -0.0123383 0)
(0.283846 -0.0232604 0)
(0.346519 -0.0367017 0)
(0.401047 -0.0521339 0)
(0.447454 -0.0690935 0)
(0.485797 -0.087139 0)
(0.516163 -0.105841 0)
(0.538668 -0.124778 0)
(0.553463 -0.143534 0)
(0.56073 -0.161695 0)
(0.560698 -0.178841 0)
(0.553643 -0.194547 0)
(0.539904 -0.208376 0)
(0.519898 -0.219883 0)
(0.494137 -0.228613 0)
(0.463249 -0.234131 0)
(0.428012 -0.236057 0)
(0.389435 -0.233942 0)
(0.0540999 -0.000423097 0)
(0.152495 -0.00485876 0)
(0.241117 -0.012944 0)
(0.320013 -0.0242545 0)
(0.389254 -0.0381076 0)
(0.448934 -0.0539559 0)
(0.499156 -0.071327 0)
(0.540037 -0.0897745 0)
(0.571699 -0.108865 0)
(0.594277 -0.128172 0)
(0.607921 -0.147271 0)
(0.612795 -0.165731 0)
(0.609093 -0.183108 0)
(0.597041 -0.198937 0)
(0.576915 -0.212721 0)
(0.54906 -0.223929 0)
(0.513923 -0.231989 0)
(0.472074 -0.236297 0)
(0.424258 -0.236115 0)
(0.371572 -0.229842 0)
(0.0606929 -0.000352216 0)
(0.17038 -0.00466664 0)
(0.268473 -0.0124843 0)
(0.355174 -0.0233814 0)
(0.430704 -0.0366673 0)
(0.495272 -0.0518073 0)
(0.549073 -0.0683531 0)
(0.592279 -0.0858851 0)
(0.625049 -0.103994 0)
(0.647527 -0.122274 0)
(0.659849 -0.140313 0)
(0.662148 -0.157687 0)
(0.654558 -0.173948 0)
(0.637224 -0.188616 0)
(0.610302 -0.201158 0)
(0.573978 -0.210973 0)
(0.528477 -0.217419 0)
(0.47404 -0.219858 0)
(0.410804 -0.217343 0)
(0.338878 -0.205945 0)
(0.0681673 -0.000584056 0)
(0.189499 -0.00462151 0)
(0.296817 -0.0115813 0)
(0.390897 -0.0210357 0)
(0.472301 -0.032448 0)
(0.541445 -0.0454031 0)
(0.598639 -0.0595317 0)
(0.644121 -0.0744676 0)
(0.678066 -0.0898373 0)
(0.700606 -0.105254 0)
(0.71183 -0.120311 0)
(0.711795 -0.134571 0)
(0.70052 -0.14756 0)
(0.67799 -0.158748 0)
(0.644139 -0.167521 0)
(0.598837 -0.173159 0)
(0.54186 -0.174943 0)
(0.472824 -0.172561 0)
(0.391035 -0.165778 0)
(0.295349 -0.145801 0)
(0.0763226 2.68494e-05 0)
(0.213158 -0.000558612 0)
(0.334553 -0.00188402 0)
(0.44087 -0.00395503 0)
(0.532387 -0.0066605 7.15462e-19)
(0.609315 -0.00986689 -7.1539e-19)
(0.671793 -0.0134285 0)
(0.719895 -0.0171858 0)
(0.753618 -0.0209663 0)
(0.772888 -0.0245867 1.42897e-18)
(0.777547 -0.027854 -2.85754e-18)
(0.767352 -0.0305664 1.42859e-18)
(0.741965 -0.0325139 1.42827e-18)
(0.70095 -0.0334785 -1.42822e-18)
(0.643758 -0.0332357 0)
(0.569716 -0.0315557 0)
(0.478017 -0.0282065 0)
(0.367724 -0.0229556 0)
(0.237816 -0.0155823 0)
(0.0871506 -0.0061147 1.91158e-18)
(0.0747067 -3.91333e-05 0)
(0.20914 6.55548e-05 0)
(0.328607 0.000324388 0)
(0.433132 0.000738944 0)
(0.522738 0.00127235 0)
(0.597444 0.00189536 0)
(0.657263 0.0025889 0)
(0.702201 0.00333871 0)
(0.732256 0.00413122 0)
(0.747418 0.00495046 0)
(0.747671 0.00577495 -1.39595e-18)
(0.73299 0.0065742 1.3959e-18)
(0.703348 0.00730497 1.39552e-18)
(0.658713 0.00790721 -1.39549e-18)
(0.599056 0.00829998 0)
(0.524352 0.00837719 0)
(0.434586 0.00799983 -2.78852e-18)
(0.32976 0.00697761 2.78855e-18)
(0.209897 0.00505662 2.78665e-18)
(0.0750495 0.00205431 -1.86255e-18)
(0.0754213 7.78427e-05 0)
(0.211017 0.000542832 0)
(0.331417 0.00131929 0)
(0.436665 0.00233646 0)
(0.526799 0.00351988 0)
(0.601852 0.00480917 0)
(0.661849 0.00614859 0)
(0.706809 0.00748301 0)
(0.736747 0.00875742 -1.33635e-18)
(0.751674 0.00991662 1.33628e-18)
(0.751595 0.0109049 0)
(0.736511 0.0116653 0)
(0.706423 0.0121395 1.33563e-18)
(0.661325 0.012267 -1.3356e-18)
(0.601213 0.0119854 -2.67037e-18)
(0.526079 0.011231 2.67034e-18)
(0.435915 0.00993865 0)
(0.330715 0.00803557 -2.66873e-18)
(0.21047 0.00542487 2.66876e-18)
(0.0751791 0.00201028 0)
(0.072811 -9.11135e-07 0)
(0.203961 0.000330673 0)
(0.320603 0.000988402 0)
(0.422708 0.00194363 0)
(0.51025 0.00311947 6.47535e-19)
(0.583211 0.00444374 -6.47488e-19)
(0.641576 0.00584985 0)
(0.685335 0.00727269 0)
(0.714482 0.00864735 1.29472e-18)
(0.729014 0.0099091 -7.49941e-23)
(0.728932 0.0109934 -2.58897e-18)
(0.714242 0.0118357 1.29439e-18)
(0.684951 0.0123714 1.29406e-18)
(0.641072 0.0125358 -1.29404e-18)
(0.582621 0.0122643 0)
(0.509619 0.0114926 0)
(0.422089 0.0101561 -2.58619e-18)
(0.32006 0.00818291 5.17179e-18)
(0.203568 0.00548737 -6.34208e-22)
(0.072652 0.00202278 -2.05426e-22)
(0.0726457 5.45226e-05 0)
(0.203345 0.000470925 0)
(0.319471 0.00120042 -3.10636e-19)
(0.421041 0.00218774 3.10609e-19)
(0.508067 0.00336099 0)
(0.580561 0.0046574 -6.21199e-19)
(0.638532 0.0060173 6.21157e-19)
(0.681986 0.00738079 0)
(0.710929 0.00868745 0)
(0.725368 0.00987675 0)
(0.725306 0.0108882 -1.24181e-18)
(0.710748 0.0116612 1.26073e-22)
(0.681696 0.0121354 2.48307e-18)
(0.638152 0.0122505 -1.24143e-18)
(0.580118 0.0119465 0)
(0.507594 0.0111642 0)
(0.420578 0.00984555 0)
(0.319066 0.00792672 0)
(0.203053 0.00532448 0)
(0.0725286 0.00196193 0)
(0.0708407 1.33196e-05 0)
(0.198407 0.000355263 0)
(0.311836 0.00100987 0)
(0.411112 0.00194313 0)
(0.496219 0.00308241 5.99666e-19)
(0.567146 0.00436048 -5.99621e-19)
(0.623883 0.00571457 0)
(0.666424 0.00708268 0)
(0.694765 0.00840269 0)
(0.708905 0.00961249 1.19887e-18)
(0.708844 0.0106501 -2.39755e-18)
(0.694587 0.0114535 1.19869e-18)
(0.66614 0.0119609 0)
(0.623511 0.0121105 0)
(0.566711 0.0118404 0)
(0.495754 0.0110896 0)
(0.410656 0.00979693 -2.39493e-18)
(0.311436 0.00789415 2.39494e-18)
(0.198117 0.00529782 2.39377e-18)
(0.0707237 0.00195365 -2.02968e-22)
(0.0702645 4.20433e-05 0)
(0.19671 0.000426593 0)
(0.30908 0.00111517 0)
(0.407383 0.00205989 0)
(0.491623 0.00319089 5.75656e-19)
(0.561805 0.00444614 -5.75613e-19)
(0.617934 0.00576694 0)
(0.660011 0.0070945 0)
(0.688041 0.00836965 0)
(0.702025 0.00953304 1.15085e-18)