/*--------------------------------*- C++ -*----------------------------------*\
| =========                 |                                                 |
| \\      /  F ield         | OpenFOAM: The Open Source CFD Toolbox           |
|  \\    /   O peration     | Version:  v1906                                 |
|   \\  /    A nd           | Web:      www.OpenFOAM.com                      |
|    \\/     M anipulation  |                                                 |
\*---------------------------------------------------------------------------*/
FoamFile
{
    version     2.0;
    format      ascii;
    class       volVectorField;
    location    "925";
    object      U;
}
// * * * * * * * * * * * * * * * * * * * * * * * * * * * * * * * * * * * * * //

dimensions      [0 1 -1 0 0 0 0];


internalField   nonuniform List<vector> 
2650
(
(0.510837 -0.000925521 2.93639e-16)
(0.534396 -0.00147718 4.55188e-16)
(0.553248 -0.00175511 5.44477e-16)
(0.584183 -0.00214939 -3.79456e-17)
(0.616984 -0.00235685 -1.75454e-15)
(0.65563 -0.00259064 -1.15417e-15)
(0.698304 -0.00276208 1.69901e-16)
(0.744804 -0.00298306 -1.99848e-16)
(0.798266 -0.00315647 1.56822e-16)
(0.853536 -0.00342756 -6.98259e-16)
(0.921738 -0.00354606 -5.84299e-16)
(0.984069 -0.00373813 2.06773e-16)
(1.06773 -0.00326019 -3.86438e-16)
(1.11164 -0.00172127 -1.31867e-16)
(1.1422 0.00159409 7.17848e-16)
(0.508131 -0.00252476 8.50394e-16)
(0.531729 -0.0038141 6.73133e-16)
(0.550584 -0.00463324 3.05858e-15)
(0.581423 -0.00562022 -1.61534e-16)
(0.614108 -0.00618814 -2.15106e-15)
(0.652589 -0.00678588 1.01375e-15)
(0.695074 -0.00724752 4.73897e-16)
(0.741361 -0.00781265 -5.75284e-16)
(0.794579 -0.00828847 4.44696e-16)
(0.849596 -0.00896687 -2.17537e-15)
(0.917511 -0.0093307 -7.68271e-17)
(0.979592 -0.0097576 6.45139e-16)
(1.06311 -0.00862736 -1.26117e-15)
(1.10713 -0.00444197 -3.51331e-16)
(1.13864 0.00409361 4.41346e-16)
(0.502248 -0.00417913 1.40294e-15)
(0.525923 -0.00592095 9.63408e-16)
(0.544737 -0.00738695 -1.86963e-15)
(0.575385 -0.00885516 -4.35964e-16)
(0.607799 -0.00979573 -2.94073e-15)
(0.645916 -0.0107094 -1.66704e-15)
(0.687982 -0.0114611 -1.90538e-16)
(0.7338 -0.0123258 1.14429e-16)
(0.786488 -0.0131186 -3.06071e-16)
(0.840937 -0.0141277 -6.47153e-16)
(0.908228 -0.0148092 -7.36803e-16)
(0.969723 -0.0153416 1.15005e-15)
(1.0529 -0.0138165 -2.21326e-15)
(1.09708 -0.0069261 -5.78352e-16)
(1.13058 0.00627959 2.62346e-16)
(0.493327 -0.00584722 3.69307e-16)
(0.517134 -0.00804276 -3.76259e-16)
(0.535863 -0.01016 1.84556e-15)
(0.566228 -0.0121012 -8.10977e-16)
(0.598219 -0.0134112 1.36443e-15)
(0.635785 -0.0146363 -1.63702e-15)
(0.677216 -0.0156779 -6.39115e-16)
(0.722318 -0.0168401 -1.852e-16)
(0.774205 -0.0179522 -4.77172e-17)
(0.827785 -0.0192905 -1.67009e-15)
(0.894134 -0.0203024 -4.82511e-16)
(0.954719 -0.0209516 1.82986e-15)
(1.03736 -0.019087 -7.19284e-16)
(1.08175 -0.00952288 -7.59783e-16)
(1.11828 0.00842794 1.64034e-16)
(0.481418 -0.00743329 -3.91522e-15)
(0.505411 -0.0100959 -1.65497e-16)
(0.524006 -0.0128175 2.131e-15)
(0.553992 -0.015207 -5.89167e-17)
(0.58541 -0.0168584 -8.40855e-16)
(0.622237 -0.0183771 -1.70132e-15)
(0.662816 -0.0196911 -1.00855e-15)
(0.706959 -0.021137 -4.1808e-16)
(0.757775 -0.0225516 2.04085e-16)
(0.810188 -0.0242091 -1.19803e-15)
(0.875277 -0.0255401 -3.30266e-16)
(0.934625 -0.0263373 2.41085e-16)
(1.01653 -0.0241984 2.49454e-16)
(1.06113 -0.0121828 -9.68796e-16)
(1.10173 0.0104355 9.01649e-17)
(0.466577 -0.00890234 -1.70314e-17)
(0.490796 -0.012032 6.69679e-17)
(0.509205 -0.0152951 -4.77198e-16)
(0.538709 -0.0180929 8.76061e-16)
(0.5694 -0.0200466 4.09601e-16)
(0.605299 -0.0218321 1.45909e-15)
(0.64481 -0.0233935 -1.35473e-15)
(0.687752 -0.0251012 -6.24152e-16)
(0.73723 -0.0267939 5.06344e-16)
(0.788179 -0.0287517 -1.06136e-15)
(0.851685 -0.0303849 -2.49607e-16)
(0.90946 -0.031362 1.25697e-15)
(0.990382 -0.0290394 9.22904e-16)
(1.03516 -0.0148829 -7.27632e-16)
(1.08083 0.0122316 4.10589e-17)
(0.448868 -0.0102311 2.61085e-16)
(0.47334 -0.0138178 -1.70692e-15)
(0.491503 -0.0175484 2.63557e-15)
(0.520408 -0.0207028 1.52458e-15)
(0.550215 -0.0229127 -1.40114e-15)
(0.584995 -0.0249314 -9.63993e-16)
(0.623224 -0.0267104 -2.74119e-15)
(0.664723 -0.028652 -3.97493e-16)
(0.712595 -0.0305929 9.12411e-16)
(0.761785 -0.0328256 3.0655e-16)
(0.823384 -0.0347405 -2.14745e-16)
(0.879241 -0.0359274 8.02081e-16)
(0.958891 -0.0335304 1.06694e-15)
(1.00376 -0.0176094 -6.07069e-16)
(1.05542 0.0137627 -4.13682e-18)
(0.428361 -0.0113964 4.66351e-16)
(0.4531 -0.0154227 1.02355e-15)
(0.470944 -0.0195341 2.74695e-15)
(0.499126 -0.0229843 1.97863e-15)
(0.527885 -0.0253978 1.72587e-15)
(0.561352 -0.0276108 -2.11048e-15)
(0.598082 -0.0295725 -9.95745e-16)
(0.6379 -0.0317151 -2.16803e-16)
(0.6839 -0.0338698 1.29569e-16)
(0.731037 -0.0363452 -4.49875e-16)
(0.790395 -0.0385157 -2.03432e-16)
(0.84398 -0.0399397 7.07555e-16)
(0.922019 -0.0375881 1.20657e-15)
(0.966804 -0.0203424 -5.75086e-16)
(1.02533 0.0149802 -5.21415e-17)
(0.405144 -0.0123744 6.38329e-16)
(0.430141 -0.0168141 -2.7677e-16)
(0.447581 -0.0212071 5.38816e-15)
(0.474898 -0.0248834 2.34423e-15)
(0.502441 -0.0274421 -3.11142e-16)
(0.5344 -0.0298053 8.53835e-16)
(0.569416 -0.0319107 2.98292e-16)
(0.607314 -0.0342167 -9.3259e-17)
(0.651175 -0.0365449 1.23115e-15)
(0.695968 -0.039225 2.07685e-17)
(0.752751 -0.0416184 -2.23013e-16)
(0.803698 -0.0432997 4.16232e-16)
(0.879727 -0.0411183 8.89798e-16)
(0.924175 -0.0230475 -6.25349e-16)
(0.990302 0.0158397 -9.93317e-17)
(0.379317 -0.013141 7.25605e-16)
(0.404538 -0.0179573 2.19763e-15)
(0.421473 -0.02252 3.32702e-15)
(0.447768 -0.026345 2.12736e-15)
(0.473918 -0.0289853 1.8442e-15)
(0.504171 -0.0314505 1.34611e-15)
(0.537257 -0.0336564 -1.90279e-16)
(0.572998 -0.036083 1.26498e-17)
(0.614457 -0.0385398 1.20072e-15)
(0.656616 -0.0413796 3.48535e-16)
(0.710482 -0.0439556 -3.05088e-16)
(0.758422 -0.0459047 2.07379e-16)
(0.831975 -0.0440148 6.14082e-16)
(0.875731 -0.0256713 -1.81729e-15)
(0.950014 0.0162973 -1.50056e-16)
(0.350997 -0.0136717 7.6015e-16)
(0.376375 -0.0188148 2.50298e-15)
(0.392683 -0.0234236 2.94431e-15)
(0.417777 -0.0273124 1.93781e-15)
(0.442356 -0.0299676 1.72905e-15)
(0.470701 -0.0324829 1.97753e-15)
(0.501641 -0.0347421 5.89693e-17)
(0.534991 -0.0372421 7.39501e-17)
(0.573784 -0.0397773 1.29777e-15)
(0.613026 -0.0427249 6.11635e-16)
(0.663629 -0.0454348 -4.75214e-16)
(0.708183 -0.0476475 4.2434e-17)
(0.778726 -0.0461595 3.77334e-16)
(0.821328 -0.0281357 -1.62541e-15)
(0.904067 0.0163155 -1.94315e-16)
(0.320325 -0.0139409 7.23166e-16)
(0.345743 -0.0193451 4.81106e-16)
(0.361279 -0.0238657 2.76826e-15)
(0.384978 -0.0277279 1.7584e-15)
(0.407795 -0.0303292 1.64834e-15)
(0.434028 -0.0328391 1.99893e-15)
(0.46261 -0.0351017 7.70688e-17)
(0.493336 -0.0376232 8.57667e-17)
(0.529202 -0.0401818 1.2581e-15)
(0.565247 -0.0431783 8.50194e-16)
(0.612235 -0.0459641 1.59723e-16)
(0.653033 -0.0484178 -1.01961e-15)
(0.71995 -0.0474208 1.7777e-16)
(0.760819 -0.030334 -3.41789e-16)
(0.851948 0.0158678 -2.34379e-16)
(0.287464 -0.0139215 6.46377e-16)
(0.312743 -0.0195009 1.84119e-15)
(0.327338 -0.0237908 2.31328e-15)
(0.34942 -0.0275319 1.58445e-15)
(0.370282 -0.0300105 1.59687e-15)
(0.394199 -0.0324571 2.21142e-15)
(0.420206 -0.0346702 1.78126e-16)
(0.448082 -0.0371568 -7.85387e-16)
(0.480758 -0.0396798 1.31161e-15)
(0.513335 -0.0426582 8.85626e-16)
(0.556351 -0.045453 -5.96687e-16)
(0.593029 -0.0481027 -1.70069e-17)
(0.655632 -0.0476544 9.82572e-18)
(0.694075 -0.03212 -9.49627e-17)
(0.79301 0.0149367 -2.8362e-16)
(0.252607 -0.0135837 5.39584e-16)
(0.277481 -0.0192263 1.64134e-15)
(0.290937 -0.0231398 2.01655e-15)
(0.311156 -0.0266634 1.41508e-15)
(0.329864 -0.0289519 1.54672e-15)
(0.351257 -0.0312758 2.18892e-15)
(0.374477 -0.0333838 3.5023e-16)
(0.399278 -0.0357753 1.80752e-16)
(0.428501 -0.0381988 1.46e-15)
(0.457353 -0.0410852 9.41543e-16)
(0.496032 -0.0438132 -6.29145e-17)
(0.528252 -0.0465876 7.77544e-17)
(0.585769 -0.0467039 -1.45132e-16)
(0.620994 -0.033299 1.31342e-16)
(0.726434 0.0135235 -1.51328e-16)
(0.215986 -0.0128939 3.88294e-16)
(0.240069 -0.0184548 1.64966e-15)
(0.252157 -0.0218498 1.88001e-15)
(0.270239 -0.0250594 1.24683e-15)
(0.286591 -0.0270949 1.49932e-15)
(0.305253 -0.0292351 1.93585e-15)
(0.325474 -0.0311812 4.25537e-16)
(0.346983 -0.0334126 2.42969e-16)
(0.372492 -0.0356696 1.52588e-15)
(0.397372 -0.0383823 8.27768e-16)
(0.431339 -0.0409596 1.41301e-16)
(0.458799 -0.0437585 1.73573e-16)
(0.510382 -0.0444033 -1.2143e-16)
(0.541521 -0.0336204 3.6253e-16)
(0.651184 0.0116565 -4.01675e-17)
(0.177879 -0.0118137 1.86209e-16)
(0.200614 -0.0171051 1.22837e-15)
(0.211082 -0.0198551 1.88114e-15)
(0.226724 -0.0226563 1.06538e-15)
(0.240517 -0.0243832 9.23661e-17)
(0.25624 -0.0262779 4.166e-16)
(0.273253 -0.0280041 4.37119e-16)
(0.291258 -0.0300066 2.63838e-16)
(0.312787 -0.0320267 1.76615e-15)
(0.33347 -0.0344768 7.17654e-16)
(0.362336 -0.0368133 8.91817e-17)
(0.384792 -0.039506 2.58781e-16)
(0.429512 -0.0405841 5.50109e-17)
(0.45569 -0.0327615 2.67107e-16)
(0.565946 0.00939276 4.6372e-17)
(0.138625 -0.0102971 -3.66139e-17)
(0.159223 -0.0150722 9.09436e-16)
(0.167795 -0.0170867 1.71038e-15)
(0.180663 -0.0193889 8.65008e-16)
(0.191697 -0.0207624 1.11329e-15)
(0.204276 -0.0223491 1.40595e-15)
(0.217872 -0.023797 3.94159e-16)
(0.232173 -0.025497 2.60319e-16)
(0.249449 -0.0272086 5.39244e-16)
(0.265737 -0.0292981 6.28689e-16)
(0.289088 -0.0313021 -6.65411e-16)
(0.306375 -0.0337241 1.85241e-16)
(0.343227 -0.0350806 5.0616e-17)
(0.363658 -0.0303021 1.88477e-16)
(0.469057 0.00685368 1.19637e-16)
(0.0986496 -0.0082721 -2.79459e-16)
(0.115987 -0.0121989 3.96007e-16)
(0.122378 -0.0134603 1.1908e-15)
(0.132107 -0.0151772 6.32305e-16)
(0.14019 -0.016168 7.7137e-16)
(0.149422 -0.0173816 1.124e-15)
(0.159393 -0.0184934 3.11601e-16)
(0.169804 -0.0198105 2.13167e-16)
(0.182545 -0.0211413 3.85105e-16)
(0.194273 -0.0227611 4.10581e-16)
(0.211659 -0.0243427 1.31006e-18)
(0.223728 -0.0262927 1.23328e-16)
(0.251628 -0.0277181 3.97522e-17)
(0.265771 -0.0256591 1.23625e-16)
(0.358442 0.00429261 3.55157e-17)
(0.0585012 -0.00559553 6.3776e-16)
(0.0709695 -0.00824989 -8.57662e-16)
(0.0749148 -0.00885408 8.40102e-16)
(0.0811061 -0.00990904 3.83684e-16)
(0.0860596 -0.0105048 4.07891e-16)
(0.091747 -0.0112766 6.35537e-16)
(0.0978892 -0.0119922 1.98669e-16)
(0.104238 -0.012839 1.52315e-16)
(0.112145 -0.0137097 5.30973e-16)
(0.119197 -0.0147434 3.23454e-16)
(0.130114 -0.0158034 -1.12868e-17)
(0.137064 -0.017065 6.92291e-17)
(0.154843 -0.0182675 2.46469e-17)
(0.162647 -0.0180712 6.95637e-17)
(0.231532 0.00211142 -5.33206e-17)
(0.0189108 -0.00208806 -2.52772e-16)
(0.0241627 -0.00308403 6.98065e-17)
(0.0254787 -0.00317142 2.28995e-16)
(0.0276954 -0.00352523 1.29013e-16)
(0.0293733 -0.00371339 1.08456e-16)
(0.0313222 -0.00398241 1.99371e-16)
(0.0334299 -0.00423073 6.75628e-17)
(0.0355719 -0.00453025 1.43919e-16)
(0.0383183 -0.00483492 2.28955e-16)
(0.0406429 -0.00520213 1.03931e-16)
(0.0445048 -0.00557358 -4.18882e-17)
(0.0466228 -0.00603752 2.08829e-17)
(0.0530196 -0.00652529 7.88363e-18)
(0.0551997 -0.00715445 2.18928e-17)
(0.0849549 0.000352118 -1.52566e-17)
(1.06518 0.00695344 6.5826e-16)
(0.980851 0.00906329 2.45984e-16)
(0.891172 0.0096729 6.56814e-16)
(0.797204 0.00945396 6.4239e-16)
(0.710789 0.00858173 -5.49827e-17)
(0.633837 0.00747177 -1.57758e-16)
(0.568422 0.00629156 -1.38919e-16)
(0.514007 0.00518043 4.67424e-16)
(0.46973 0.0041854 -2.53314e-17)
(0.434281 0.00332316 -5.06528e-17)
(0.40642 0.00258445 6.3607e-16)
(0.385039 0.00195175 1.20305e-15)
(0.369234 0.00140356 3.37658e-16)
(0.358299 0.000918501 6.87112e-16)
(0.351735 0.000476588 2.24878e-16)
(0.34922 5.97406e-05 1.73933e-16)
(0.3506 -0.000348751 2.16556e-16)
(0.355871 -0.000764487 7.31982e-16)
(0.365174 -0.0012024 7.59474e-16)
(0.37879 -0.00167738 3.09789e-16)
(0.397144 -0.00220485 7.3485e-16)
(0.420814 -0.00280112 6.35338e-16)
(0.45053 -0.00348341 2.82268e-16)
(0.487198 -0.0042701 6.80891e-16)
(0.531907 -0.00517972 2.85082e-16)
(0.585909 -0.00622884 6.80115e-16)
(0.650599 -0.00742723 2.90908e-16)
(0.727419 -0.00877269 7.33576e-16)
(0.817754 -0.0102329 7.8127e-16)
(0.922361 -0.0117435 3.06765e-16)
(1.04152 -0.0131459 7.34849e-16)
(1.17268 -0.0142803 8.01315e-16)
(1.3139 -0.0147041 1.2785e-15)
(1.45196 -0.0144153 3.03755e-16)
(1.59042 -0.0123594 1.07797e-15)
(1.06199 0.0184238 1.82899e-15)
(0.977592 0.0237413 6.67854e-16)
(0.888004 0.02544 1.8694e-15)
(0.794327 0.0248064 3.80581e-15)
(0.70825 0.0225307 -1.66427e-16)
(0.631683 0.0196049 -4.33556e-16)
(0.566626 0.0165092 -4.12711e-16)
(0.512529 0.0135917 1.36082e-15)
(0.468518 0.0109814 -9.02087e-17)
(0.433281 0.00871916 -1.69985e-16)
(0.405587 0.00678127 1.85087e-15)
(0.384332 0.00512129 1.60866e-15)
(0.368619 0.00368289 8.63235e-16)
(0.357749 0.00240998 1.96772e-15)
(0.351226 0.00125014 6.17174e-16)
(0.348733 0.000155938 4.85215e-16)
(0.350115 -0.000916425 5.93756e-16)
(0.355372 -0.00200787 2.08369e-15)
(0.364645 -0.00315757 2.15838e-15)
(0.378211 -0.00440454 8.36902e-16)
(0.396496 -0.00578923 2.07294e-15)
(0.420073 -0.00735445 1.65191e-15)
(0.449667 -0.00914529 7.56398e-16)
(0.486179 -0.01121 1.94827e-15)
(0.530693 -0.0135971 7.68838e-16)
(0.584451 -0.0163501 1.94211e-15)
(0.648842 -0.019495 7.73442e-16)
(0.7253 -0.0230254 2.07795e-15)
(0.815211 -0.0268592 2.20932e-15)
(0.919343 -0.0308215 8.34285e-16)
(1.03798 -0.0345141 2.06518e-15)
(1.16863 -0.0374708 2.31413e-15)
(1.30931 -0.0386503 1.75249e-15)
(1.44703 -0.0377446 7.71175e-16)
(1.58517 -0.0326857 1.26752e-15)
(1.05462 0.0296682 1.83338e-15)
(0.970203 0.0377024 8.73372e-16)
(0.881038 0.0405455 1.95707e-15)
(0.788044 0.0393996 1.88397e-15)
(0.702786 0.0357843 -4.87787e-16)
(0.627076 0.0311026 -7.54524e-16)
(0.562811 0.0261856 -7.97103e-16)
(0.509403 0.0215517 1.2142e-15)
(0.46596 0.0174125 -3.01349e-16)
(0.431177 0.0138258 -4.39227e-16)
(0.403834 0.010754 1.93844e-15)
(0.382845 0.00812213 2.13415e-15)
(0.367326 0.00584098 1.26384e-15)
(0.356592 0.00382146 2.13996e-15)
(0.350155 0.00198056 9.00034e-16)
(0.347707 0.000243201 7.7893e-16)
(0.349096 -0.00146001 8.81803e-16)
(0.354325 -0.00319385 2.26049e-15)
(0.363532 -0.00502036 2.34641e-15)
(0.376996 -0.00700134 1.17685e-15)
(0.395134 -0.00920081 2.23857e-15)
(0.418514 -0.0116865 3.63083e-15)
(0.447853 -0.0145299 1.04621e-15)
(0.484037 -0.0178073 2.08762e-15)
(0.528136 -0.0215958 1.06626e-15)
(0.581375 -0.0259642 2.08208e-15)
(0.645124 -0.0309549 1.08454e-15)
(0.720805 -0.0365575 2.25842e-15)
(0.809794 -0.042648 2.38318e-15)
(0.912873 -0.0489398 1.17066e-15)
(1.03034 -0.054834 2.28512e-15)
(1.15981 -0.0595082 2.50975e-15)
(1.29927 -0.0615164 2.26378e-15)
(1.43595 -0.0598274 1.13432e-15)
(1.57322 -0.0523996 -6.13107e-16)
(1.04333 0.0413608 1.25485e-15)
(0.958907 0.052165 9.09711e-16)
(0.870463 0.0561105 1.45472e-15)
(0.778508 0.0543676 1.31117e-15)
(0.694521 0.0493285 -9.21414e-17)
(0.620115 0.0428232 -1.07647e-15)
(0.557054 0.0360347 -4.129e-16)
(0.504689 0.0296482 6.63015e-16)
(0.462105 0.0239531 -6.58498e-16)
(0.428006 0.0190205 2.779e-17)
(0.401192 0.0147968 1.51027e-15)
(0.380601 0.011177 1.89064e-15)
(0.365374 0.00803805 1.52481e-15)
(0.354843 0.00525739 1.75468e-15)
(0.348537 0.00272106 1.08348e-15)
(0.346156 0.00032598 1.05441e-15)
(0.347555 -0.0020231 1.0776e-15)
(0.35274 -0.00441513 1.82459e-15)
(0.36185 -0.00693528 1.89866e-15)
(0.375157 -0.00966839 1.33363e-15)
(0.393075 -0.0127023 1.83467e-15)
(0.41616 -0.0161301 1.45936e-15)
(0.445113 -0.0200496 1.21285e-15)
(0.480803 -0.0245656 1.6621e-15)
(0.524275 -0.0297843 1.1997e-15)
(0.57673 -0.0358004 1.6528e-15)
(0.639511 -0.0426738 1.23426e-15)
(0.714016 -0.0503914 1.83011e-15)
(0.801608 -0.0587894 1.90412e-15)
(0.903086 -0.0674707 1.32232e-15)
(1.01879 -0.0756347 1.88033e-15)
(1.14642 -0.0820952 2.0449e-15)
(1.28406 -0.0849814 1.9636e-15)
(1.41905 -0.0825142 1.3598e-15)
(1.55495 -0.0726354 1.36965e-15)
(1.02814 0.0531024 9.79203e-16)
(0.943717 0.0666362 8.90614e-16)
(0.856305 0.0715522 1.22027e-15)
(0.765765 0.0691235 1.07475e-15)
(0.683508 0.0626081 1.257e-16)
(0.610855 0.0542747 -8.50087e-16)
(0.549408 0.0456372 -1.51907e-16)
(0.498432 0.0375348 4.99566e-16)
(0.456988 0.0303234 -4.68535e-16)
(0.423795 0.0240821 3.29857e-16)
(0.397681 0.0187383 1.38775e-15)
(0.377619 0.0141569 1.89605e-15)
(0.362778 0.0101814 1.76264e-15)
(0.352516 0.00665677 1.66018e-15)
(0.346382 0.00343902 1.22778e-15)
(0.344088 0.000398055 1.32906e-15)
(0.345501 -0.00258634 1.22439e-15)
(0.350627 -0.00562649 1.67455e-15)
(0.359607 -0.00882995 1.73865e-15)
(0.372707 -0.0123038 1.42667e-15)
(0.390332 -0.016159 1.70788e-15)
(0.413024 -0.0205128 1.55601e-15)
(0.441464 -0.0254887 1.32668e-15)
(0.476498 -0.0312189 1.53607e-15)
(0.519139 -0.0378376 1.28735e-15)
(0.570553 -0.0454653 1.52152e-15)
(0.632045 -0.0541797 1.32286e-15)
(0.704984 -0.0639675 1.67725e-15)
(0.790713 -0.0746295 1.73009e-15)
(0.890048 -0.0856668 1.40727e-15)
(1.00338 -0.0960835 1.74512e-15)
(1.12854 -0.104342 1.85704e-15)
(1.26372 -0.108127 1.92773e-15)
(1.39639 -0.104942 1.5491e-15)
(1.53041 -0.0925768 1.33025e-15)
(1.009 0.0647879 8.50917e-16)
(0.924602 0.080943 8.59326e-16)
(0.838573 0.0866549 1.13572e-15)
(0.749858 0.0834304 1.01438e-15)
(0.66981 0.0753922 3.08214e-16)
(0.599366 0.0652484 -2.99178e-16)
(0.539936 0.0548144 8.70866e-17)
(0.490687 0.0450641 5.42198e-16)
(0.450656 0.0364052 6.33689e-17)
(0.418583 0.0289176 5.7736e-16)
(0.393333 0.0225073 1.40645e-15)
(0.373922 0.0170086 2.04624e-15)
(0.359556 0.0122329 2.02447e-15)
(0.349626 0.00799426 1.68766e-15)
(0.343702 0.0041204 1.33874e-15)
(0.341517 0.000455704 1.6286e-15)
(0.342945 -0.00314362 1.33484e-15)
(0.347998 -0.006812 1.6635e-15)
(0.356815 -0.0106781 1.72054e-15)
(0.369659 -0.0148702 1.49518e-15)
(0.386921 -0.0195208 1.71001e-15)
(0.409126 -0.02477 1.64378e-15)
(0.436932 -0.0307656 1.41339e-15)
(0.471153 -0.0376653 1.54214e-15)
(0.512765 -0.04563 1.35939e-15)
(0.562889 -0.0548049 1.52581e-15)
(0.622784 -0.0652859 1.3929e-15)
(0.693777 -0.0770625 1.66258e-15)
(0.777184 -0.089906 1.70127e-15)
(0.873838 -0.103227 1.46379e-15)
(0.984188 -0.115847 1.71435e-15)
(1.10622 -0.125896 1.8003e-15)
(1.2383 -0.130598 2.02426e-15)
(1.36798 -0.126765 1.72974e-15)
(1.49958 -0.111918 1.41057e-15)
(0.985824 0.0763857 8.20277e-16)
(0.901518 0.0950046 8.32409e-16)
(0.817272 0.1013 1.1382e-15)
(0.730839 0.0971502 1.05755e-15)
(0.653503 0.0875439 4.56837e-16)
(0.58573 0.0756208 5.11367e-17)
(0.528718 0.0634618 2.90842e-16)
(0.481525 0.052151 6.97223e-16)
(0.443167 0.0421312 4.06651e-16)
(0.412415 0.033475 7.71672e-16)
(0.388184 0.0260642 1.49057e-15)
(0.369538 0.0197028 1.82285e-15)
(0.355731 0.0141717 1.83791e-15)
(0.34619 0.009256 1.75039e-15)
(0.340514 0.00475724 1.40605e-15)
(0.338455 0.000496227 1.49826e-15)
(0.339899 -0.00369275 1.39174e-15)
(0.344864 -0.00796462 1.73172e-15)
(0.353489 -0.0124678 1.78453e-15)
(0.366029 -0.0173499 1.54629e-15)
(0.38286 -0.0227637 1.7818e-15)
(0.404489 -0.0288706 1.75393e-15)
(0.431545 -0.0358401 1.47996e-15)
(0.464805 -0.0438539 1.62369e-15)
(0.505198 -0.0530975 1.4203e-15)
(0.553794 -0.0637394 1.6022e-15)
(0.611794 -0.0758941 1.44168e-15)
(0.680472 -0.0895563 1.72357e-15)
(0.761108 -0.104475 1.75289e-15)
(0.854548 -0.119985 1.50079e-15)
(0.961308 -0.134742 1.75176e-15)
(1.07954 -0.14656 1.8327e-15)
(1.20785 -0.152199 1.74068e-15)
(1.33385 -0.147792 1.45852e-15)
(1.46244 -0.130485 1.09117e-15)
(0.958522 0.087863 8.72335e-16)
(0.874407 0.10874 7.94509e-16)
(0.792415 0.115369 1.2127e-15)
(0.708774 0.110149 1.17713e-15)
(0.634681 0.0989347 5.67999e-16)
(0.570048 0.0852797 2.8536e-16)
(0.515848 0.0714868 4.50151e-16)
(0.471025 0.0587222 9.27063e-16)
(0.434586 0.0474445 6.38165e-16)
(0.405344 0.0377109 9.17432e-16)
(0.382274 0.0293764 1.63972e-15)
(0.3645 0.0222156 1.70335e-15)
(0.351328 0.0159807 1.72625e-15)
(0.342229 0.0104306 1.87081e-15)
(0.336835 0.00534302 1.44554e-15)
(0.334917 0.000517374 1.43983e-15)
(0.336379 -0.00423197 1.41989e-15)
(0.341242 -0.00907867 1.85916e-15)
(0.349645 -0.0141891 1.90971e-15)
(0.361834 -0.0197287 1.56905e-15)
(0.378172 -0.0258686 1.90457e-15)
(0.39914 -0.0327889 1.8979e-15)
(0.425336 -0.0406794 1.51787e-15)
(0.457493 -0.0497429 1.76399e-15)
(0.49649 -0.0601871 1.45668e-15)
(0.543332 -0.0722023 1.73371e-15)
(0.599153 -0.0859208 1.46287e-15)
(0.665161 -0.101346 1.82838e-15)
(0.742592 -0.118212 1.84917e-15)
(0.832289 -0.135793 1.50548e-15)
(0.934844 -0.152598 1.8424e-15)
(1.04859 -0.166153 1.90967e-15)
(1.17239 -0.172748 1.56105e-15)
(1.29399 -0.167843 1.2747e-15)
(1.41894 -0.148103 8.93409e-16)
(0.926974 0.0991702 6.46136e-16)
(0.843211 0.122049 7.20676e-16)
(0.764026 0.12872 9.94557e-16)
(0.68375 0.122278 9.77828e-16)
(0.613458 0.109429 6.21408e-16)
(0.552442 0.0941115 4.44371e-16)
(0.501436 0.0787992 5.61492e-16)
(0.45928 0.0647075 8.62376e-16)
(0.424988 0.0522914 7.79185e-16)
(0.39743 0.0415848 1.0158e-15)
(0.37565 0.0324137 1.50095e-15)
(0.358843 0.0245247 1.62135e-15)
(0.346377 0.0176442 1.65062e-15)
(0.337768 0.0115077 1.69965e-15)
(0.332684 0.0058719 1.44842e-15)
(0.330923 0.00051732 1.41335e-15)
(0.332401 -0.00475935 1.4237e-15)
(0.337149 -0.0101485 1.67749e-15)
(0.345301 -0.0158325 1.71371e-15)
(0.357097 -0.0219928 1.54187e-15)
(0.372881 -0.0288165 1.71544e-15)
(0.393109 -0.0365007 1.70904e-15)
(0.418341 -0.0452522 1.50193e-15)
(0.449264 -0.0552924 1.602e-15)
(0.486697 -0.0668484 1.45015e-15)
(0.531574 -0.0801297 1.56779e-15)
(0.584949 -0.0952856 1.44026e-15)
(0.647953 -0.11233 1.62639e-15)
(0.721756 -0.130992 1.63384e-15)
(0.807193 -0.1505 1.4565e-15)
(0.904922 -0.16924 1.63057e-15)
(1.01347 -0.184483 1.65241e-15)
(1.13201 -0.192044 1.41707e-15)
(1.24842 -0.186721 1.13526e-15)
(1.36902 -0.164573 7.68245e-16)
(0.891042 0.110237 4.97735e-16)
(0.807865 0.134806 6.41294e-16)
(0.732144 0.141187 8.42745e-16)
(0.655879 0.133375 8.498e-16)
(0.589976 0.118885 6.60924e-16)
(0.533052 0.102004 5.56697e-16)
(0.485607 0.0853127 6.52885e-16)
(0.446396 0.0700419 8.59145e-16)
(0.414459 0.0566234 8.80569e-16)
(0.388738 0.0450604 1.08843e-15)
(0.368363 0.0351493 1.43655e-15)
(0.352609 0.0266106 1.57994e-15)
(0.340908 0.0191485 1.60082e-15)
(0.332831 0.0124782 1.60183e-15)
(0.328084 0.00633886 1.44521e-15)
(0.32649 0.000494681 1.40253e-15)
(0.327984 -0.00527287 1.41702e-15)
(0.332602 -0.0111687 1.56287e-15)
(0.340477 -0.0173891 1.5864e-15)
(0.35184 -0.0241293 1.49765e-15)
(0.367014 -0.0315903 1.58898e-15)
(0.386428 -0.0399833 1.5836e-15)
(0.410602 -0.0495296 1.47032e-15)
(0.440171 -0.0604656 1.50798e-15)
(0.475886 -0.0730346 1.42958e-15)
(0.518602 -0.0874622 1.47469e-15)
(0.569284 -0.103913 1.40424e-15)
(0.628967 -0.122414 1.49482e-15)
(0.698742 -0.142695 1.49634e-15)
(0.779415 -0.163956 1.39812e-15)
(0.871696 -0.184489 1.4831e-15)
(0.974306 -0.201345 1.48015e-15)
(1.08679 -0.209873 1.31174e-15)
(1.19716 -0.20421 1.03704e-15)
(1.31263 -0.179671 6.8437e-16)
(0.850569 0.120962 3.92494e-16)
(0.768318 0.146853 5.68691e-16)
(0.696839 0.152576 7.27694e-16)
(0.625308 0.143263 7.72294e-16)
(0.564408 0.12716 6.8692e-16)
(0.512044 0.108848 6.40756e-16)
(0.468506 0.0909476 7.29033e-16)
(0.432491 0.0746675 8.83722e-16)
(0.40309 0.0603982 9.60235e-16)
(0.379341 0.0481067 1.1488e-15)
(0.360471 0.0375603 1.41857e-15)
(0.345841 0.0284569 1.57316e-15)
(0.334958 0.0204819 1.57415e-15)
(0.327448 0.0133347 1.54832e-15)
(0.323057 0.0067399 1.4438e-15)
(0.321641 0.0004486 1.40056e-15)
(0.323148 -0.00577037 1.41075e-15)
(0.327622 -0.0121341 1.49015e-15)
(0.335196 -0.0188505 1.50109e-15)
(0.346088 -0.0261264 1.45344e-15)
(0.360602 -0.0341741 1.5018e-15)
(0.379135 -0.0432163 1.49942e-15)
(0.402165 -0.0534852 1.43892e-15)
(0.43027 -0.0652292 1.4531e-15)
(0.464128 -0.0787035 1.41062e-15)
(0.504509 -0.0941459 1.41656e-15)
(0.552271 -0.111734 1.36807e-15)
(0.608344 -0.131508 1.40699e-15)
(0.673715 -0.153204 1.39459e-15)
(0.749137 -0.176013 1.33356e-15)
(0.83535 -0.198163 1.36969e-15)
(0.931273 -0.216526 1.35414e-15)
(1.03681 -0.225999 1.23748e-15)
(1.14026 -0.220074 9.74812e-16)
(1.24969 -0.193138 6.38562e-16)
(0.805376 0.13121 3.22496e-16)
(0.724533 0.157999 5.06669e-16)
(0.658215 0.162665 6.4532e-16)
(0.592225 0.15175 7.18582e-16)
(0.536957 0.13411 7.05548e-16)
(0.48961 0.114542 7.08499e-16)
(0.450293 0.095633 8.00781e-16)
(0.417693 0.0785351 9.26559e-16)
(0.390985 0.0635811 1.02817e-15)
(0.369318 0.0506988 1.20663e-15)
(0.352032 0.0396288 1.42956e-15)
(0.338586 0.0300506 1.5986e-15)
(0.328562 0.0216355 1.5668e-15)
(0.321647 0.0140713 1.52214e-15)
(0.317631 0.00707204 1.44776e-15)
(0.316398 0.00037874 1.40442e-15)
(0.317914 -0.00624964 1.40887e-15)
(0.322232 -0.0130398 1.44425e-15)
(0.329482 -0.0202093 1.44252e-15)
(0.339868 -0.0279736 1.41433e-15)
(0.353676 -0.0365541 1.4402e-15)
(0.371268 -0.0461817 1.44183e-15)
(0.393078 -0.0570966 1.41165e-15)
(0.419622 -0.0695548 1.42102e-15)
(0.451502 -0.0838188 1.39884e-15)
(0.489391 -0.100134 1.37966e-15)
(0.534034 -0.118689 1.33878e-15)
(0.586236 -0.139532 1.33837e-15)
(0.646857 -0.162413 1.31788e-15)
(0.716569 -0.186531 1.26656e-15)
(0.796104 -0.210079 1.27927e-15)
(0.884564 -0.229802 1.26222e-15)
(0.982235 -0.240173 1.19452e-15)
(1.07776 -0.23405 9.2968e-16)
(1.18013 -0.204678 6.33254e-16)
(0.75526 0.140786 2.7176e-16)
(0.6765 0.168002 4.47129e-16)
(0.616426 0.171196 5.8659e-16)
(0.556867 0.158636 6.76307e-16)
(0.507865 0.139591 7.23982e-16)
(0.465963 0.118992 7.67341e-16)
(0.431144 0.0993085 8.66728e-16)
(0.402142 0.0816049 9.75365e-16)
(0.378248 0.0661452 1.08816e-15)
(0.35875 0.0528181 1.26241e-15)
(0.343111 0.0413414 1.45447e-15)
(0.330892 0.031382 1.65621e-15)
(0.321759 0.0226027 1.57251e-15)
(0.31546 0.014684 1.51217e-15)
(0.311831 0.0073334 1.45794e-15)
(0.310784 0.000285297 1.41237e-15)
(0.312306 -0.00670843 1.41395e-15)
(0.316455 -0.0138816 1.41722e-15)
(0.323358 -0.0214587 1.40311e-15)
(0.33321 -0.0296618 1.38315e-15)
(0.346271 -0.0387183 1.39679e-15)
(0.36287 -0.0488646 1.40334e-15)
(0.383393 -0.0603447 1.3925e-15)
(0.408293 -0.0734181 1.40269e-15)
(0.43809 -0.08835 1.39947e-15)
(0.473354 -0.105389 1.36213e-15)
(0.514706 -0.124724 1.3142e-15)
(0.562809 -0.146416 1.28723e-15)
(0.618372 -0.170227 1.26069e-15)
(0.681946 -0.195375 1.22017e-15)
(0.754212 -0.220054 1.21279e-15)
(0.834421 -0.240938 1.20232e-15)
(0.923217 -0.252117 1.19751e-15)
(1.00973 -0.245843 8.93501e-16)
(1.10384 -0.213951 6.65035e-16)
(0.700009 0.149421 2.47049e-16)
(0.62427 0.17656 4.07742e-16)
(0.571695 0.177873 5.45981e-16)
(0.519536 0.163705 6.5303e-16)
(0.477421 0.143468 7.53546e-16)
(0.441347 0.122116 8.19246e-16)
(0.411252 0.101926 9.34919e-16)
(0.385986 0.0838481 1.02545e-15)
(0.364994 0.0680723 1.14216e-15)
(0.347723 0.054452 1.32096e-15)
(0.333771 0.0426894 1.48487e-15)
(0.32281 0.0324451 1.75376e-15)
(0.314589 0.0233791 1.58497e-15)
(0.308921 0.0151701 1.51136e-15)
(0.305685 0.00752298 1.47539e-15)
(0.304826 0.000168872 1.42273e-15)
(0.306347 -0.00714449 1.42698e-15)
(0.310315 -0.0146555 1.40293e-15)
(0.316853 -0.022593 1.37699e-15)
(0.326143 -0.0311832 1.35855e-15)
(0.338422 -0.0406568 1.36704e-15)
(0.353984 -0.0512522 1.37779e-15)
(0.373164 -0.0632138 1.37963e-15)
(0.396352 -0.0767998 1.3965e-15)
(0.42398 -0.0922726 1.41059e-15)
(0.45651 -0.109876 1.35647e-15)
(0.494431 -0.129799 1.2935e-15)
(0.538246 -0.152102 1.25514e-15)
(0.588488 -0.17656 1.22205e-15)
(0.645544 -0.202421 1.1826e-15)
(0.709981 -0.227907 1.15809e-15)
(0.781146 -0.249687 1.14944e-15)
(0.859989 -0.261528 1.23013e-15)
(0.936282 -0.255117 8.59489e-16)
(1.02071 -0.220551 7.15399e-16)
(0.639389 0.15673 2.37264e-16)
(0.567968 0.183294 3.79712e-16)
(0.524334 0.18236 5.13667e-16)
(0.480604 0.166741 6.41166e-16)
(0.445952 0.145617 7.95209e-16)
(0.416028 0.123849 8.6808e-16)
(0.390823 0.103453 1.00217e-15)
(0.36938 0.0852481 1.07489e-15)
(0.351338 0.0693534 1.19407e-15)
(0.336325 0.0555955 1.38326e-15)
(0.324081 0.0436693 1.51148e-15)
(0.314392 0.0332371 1.69207e-15)
(0.307094 0.023963 1.59115e-15)
(0.302062 0.0155287 1.51399e-15)
(0.299223 0.00764079 1.50116e-15)
(0.298549 3.04834e-05 1.43309e-15)
(0.300064 -0.00755569 1.44984e-15)
(0.303838 -0.0153581 1.39701e-15)
(0.309995 -0.0236075 1.35839e-15)
(0.3187 -0.0325317 1.33853e-15)
(0.330167 -0.0423619 1.34727e-15)
(0.344655 -0.0533352 1.36345e-15)
(0.362449 -0.0656924 1.37625e-15)
(0.38387 -0.0796859 1.40009e-15)
(0.409263 -0.0955693 1.43946e-15)
(0.438977 -0.113576 1.35962e-15)
(0.47336 -0.133883 1.2832e-15)
(0.512742 -0.156545 1.23081e-15)
(0.55745 -0.181344 1.19303e-15)
(0.607666 -0.207559 1.14629e-15)
(0.663763 -0.233467 1.11055e-15)
(0.725103 -0.255792 1.10443e-15)
(0.792838 -0.268067 1.10126e-15)
(0.857562 -0.261476 8.09497e-16)
(0.930602 -0.223983 6.02597e-16)
(0.573152 0.162173 2.32128e-16)
(0.507847 0.18773 3.56173e-16)
(0.474771 0.184288 4.8367e-16)
(0.440525 0.167532 6.2673e-16)
(0.413836 0.145937 8.47697e-16)
(0.390296 0.124151 9.03684e-16)
(0.370071 0.103876 1.0756e-15)
(0.352482 0.0858035 1.12084e-15)
(0.337399 0.0699911 1.24044e-15)
(0.324643 0.0562514 1.45485e-15)
(0.314106 0.0442836 1.53667e-15)
(0.305689 0.0337604 1.67505e-15)
(0.299313 0.0243563 1.60138e-15)
(0.294917 0.0157616 1.51539e-15)
(0.292472 0.00768887 1.53818e-15)
(0.29198 -0.000127302 1.43933e-15)
(0.29348 -0.00793877 1.48579e-15)
(0.297051 -0.0159853 1.39539e-15)
(0.30281 -0.0244971 1.34518e-15)
(0.310911 -0.0337012 1.32332e-15)
(0.321544 -0.0438264 1.33451e-15)
(0.334929 -0.0551051 1.35808e-15)
(0.351303 -0.0677709 1.37695e-15)
(0.370919 -0.0820652 1.40749e-15)
(0.394031 -0.0982268 1.48749e-15)
(0.420874 -0.116471 1.36747e-15)
(0.451648 -0.136954 1.27766e-15)
(0.486499 -0.159713 1.21077e-15)
(0.525525 -0.184525 1.16529e-15)
(0.56865 -0.210696 1.11385e-15)
(0.615968 -0.23657 1.0745e-15)
(0.666738 -0.258988 1.06517e-15)
(0.722142 -0.271361 1.01816e-15)
(0.773764 -0.264452 7.55942e-16)
(0.833306 -0.223632 5.25121e-16)
(0.501045 0.165107 2.27322e-16)
(0.444355 0.189336 3.38025e-16)
(0.423589 0.183273 4.54301e-16)
(0.399853 0.165892 6.04796e-16)
(0.381498 0.144363 9.17301e-16)
(0.364463 0.123011 9.27883e-16)
(0.349221 0.103208 1.16702e-15)
(0.335456 0.0855324 1.16116e-15)
(0.323294 0.0700025 1.2787e-15)
(0.312765 0.0564345 1.54415e-15)
(0.303913 0.0445443 1.56031e-15)