/*--------------------------------*- C++ -*----------------------------------*\
| =========                 |                                                 |
| \\      /  F ield         | OpenFOAM: The Open Source CFD Toolbox           |
|  \\    /   O peration     | Version:  plus                                  |
|   \\  /    A nd           | Web:      www.OpenFOAM.com                      |
|    \\/     M anipulation  |                                                 |
\*---------------------------------------------------------------------------*/
FoamFile
{
    version     2.0;
    format      ascii;
    class       volScalarField;
    location    "0";
    object      aspectRatio;
}
// * * * * * * * * * * * * * * * * * * * * * * * * * * * * * * * * * * * * * //

dimensions      [0 0 0 0 0 0 0];


internalField   nonuniform List<scalar> 
2650
(
7.90083
8.11428
8.33963
8.57778
8.82993
9.09743
9.38158
9.684
10.0067
10.3515
10.7209
11.1177
11.545
12.0064
12.5062
5.17644
5.31381
5.45866
5.61166
5.77344
5.94486
6.12678
6.32012
6.52611
6.74598
6.98114
7.23328
7.50435
7.79647
8.11224
4.549
4.66682
4.79089
4.92174
5.05993
5.2061
5.36097
5.52532
5.70007
5.88626
6.08496
6.29756
6.52558
6.77069
7.03493
4.22867
4.33549
4.44784
4.56619
4.69099
4.8228
4.96223
5.10998
5.26676
5.43349
5.61114
5.80075
6.00362
6.22118
6.45514
4.01387
4.11279
4.21668
4.32596
4.44127
4.56269
4.69091
4.82656
4.97036
5.12291
5.28517
5.45802
5.64257
5.84001
6.05175
3.84926
3.94187
4.03905
4.14098
4.24853
4.36163
4.48092
4.60686
4.7401
4.8815
5.03137
5.19071
5.36046
5.54179
5.73577
3.71326
3.80051
3.89197
3.98779
4.08859
4.1948
4.30649
4.42428
4.54851
4.68032
4.81978
4.96781
5.12514
5.29276
5.47202
3.59562
3.67831
3.76475
3.85536
3.95028
4.05031
4.15537
4.26602
4.38254
4.506
4.63639
4.77456
4.9212
5.07716
5.24329
3.49112
3.56948
3.65157
3.7374
3.82721
3.92174
4.0209
4.12521
4.23489
4.35093
4.47331
4.60277
4.73996
4.88555
5.04037
3.39645
3.47092
3.54897
3.63046
3.71566
3.80523
3.89908
3.99767
4.10139
4.21061
4.32582
4.44731
4.57622
4.71261
4.85737
3.30934
3.38034
3.45456
3.53223
3.61323
3.6983
3.78732
3.88058
3.97886
4.08209
4.1908
4.30548
4.42658
4.5547
4.69046
3.22848
3.29639
3.36712
3.44117
3.51831
3.5991
3.68383
3.77237
3.86556
3.96331
4.06598
4.17443
4.28865
4.4093
4.53691
3.15277
3.21782
3.2854
3.35611
3.42981
3.50669
3.58736
3.67155
3.76006
3.85281
3.95025
4.05272
4.1605
4.27451
4.39475
3.08166
3.14397
3.20865
3.27613
3.34664
3.42002
3.49692
3.57712
3.66133
3.74932
3.84193
3.93909
4.0413
4.14893
4.26228
3.01449
3.07414
3.13629
3.20081
3.26825
3.33837
3.41178
3.48827
3.5685
3.65226
3.74031
3.83242
3.92948
4.03142
4.13881
2.95089
3.00806
3.06767
3.12951
3.19409
3.26118
3.33135
3.4044
3.48095
3.56078
3.6446
3.7322
3.82441
3.92095
4.02283
2.89032
2.94526
3.0025
3.06182
3.12372
3.18799
3.25515
3.32499
3.39811
3.4743
3.55421
3.63776
3.72531
3.81721
3.91372
2.83251
2.88543
2.94035
2.9974
3.05681
3.11842
3.18277
3.24962
3.31955
3.39244
3.46849
3.54827
3.63155
3.7191
3.81069
2.77736
2.82837
2.88112
2.93597
2.99302
3.05215
3.11386
3.17792
3.24477
3.3146
3.38727
3.46344
3.54286
3.62625
3.71354
2.72458
2.77371
2.8245
2.87726
2.93202
2.98892
3.04816
3.1096
3.17366
3.24052
3.31004
3.38283
3.45879
3.5381
3.62138
5.72012
5.71879
5.72012
5.72012
5.72012
5.71879
5.72012
5.72012
5.71879
5.72012
5.72012
5.72012
5.71879
5.72012
5.72012
5.71879
5.72012
5.72012
5.72012
5.71879
5.72012
5.72012
5.71879
5.72012
5.72012
5.72012
5.71879
5.72012
5.72012
5.71879
5.72012
5.72012
5.72012
5.71879
5.72012
3.81341
3.81252
3.81341
3.81341
3.81341
3.81252
3.81341
3.81341
3.81252
3.81341
3.81341
3.81341
3.81252
3.81341
3.81341
3.81252
3.81341
3.81341
3.81341
3.81252
3.81341
3.81341
3.81252
3.81341
3.81341
3.81341
3.81252
3.81341
3.81341
3.81252
3.81341
3.81341
3.81341
3.81252
3.81341
3.43205
3.43125
3.43205
3.43205
3.43205
3.43125
3.43205
3.43205
3.43125
3.43205
3.43205
3.43205
3.43125
3.43205
3.43205
3.43125
3.43205
3.43205
3.43205
3.43125
3.43205
3.43205
3.43125
3.43205
3.43205
3.43205
3.43125
3.43205
3.43205
3.43125
3.43205
3.43205
3.43205
3.43125
3.43205
3.26864
3.26788
3.26864
3.26864
3.26864
3.26788
3.26864
3.26864
3.26788
3.26864
3.26864
3.26864
3.26788
3.26864
3.26864
3.26788
3.26864
3.26864
3.26864
3.26788
3.26864
3.26864
3.26788
3.26864
3.26864
3.26864
3.26788
3.26864
3.26864
3.26788
3.26864
3.26864
3.26864
3.26788
3.26864
3.17784
3.1771
3.17784
3.17784
3.17784
3.1771
3.17784
3.17784
3.1771
3.17784
3.17784
3.17784
3.1771
3.17784
3.17784
3.1771
3.17784
3.17784
3.17784
3.1771
3.17784
3.17784
3.1771
3.17784
3.17784
3.17784
3.1771
3.17784
3.17784
3.1771
3.17784
3.17784
3.17784
3.1771
3.17784
3.12007
3.11934
3.12007
3.12007
3.12007
3.11934
3.12007
3.12007
3.11934
3.12007
3.12007
3.12007
3.11934
3.12007
3.12007
3.11934
3.12007
3.12007
3.12007
3.11934
3.12007
3.12007
3.11934
3.12007
3.12007
3.12007
3.11934
3.12007
3.12007
3.11934
3.12007
3.12007
3.12007
3.11934
3.12007
3.08007
3.07935
3.08007
3.08007
3.08007
3.07935
3.08007
3.08007
3.07935
3.08007
3.08007
3.08007
3.07935
3.08007
3.08007
3.07935
3.08007
3.08007
3.08007
3.07935
3.08007
3.08007
3.07935
3.08007
3.08007
3.08007
3.07935
3.08007
3.08007
3.07935
3.08007
3.08007
3.08007
3.07935
3.08007
3.05067
3.04996
3.05067
3.05067
3.05067
3.04996
3.05067
3.05067
3.04996
3.05067
3.05067
3.05067
3.04996
3.05067
3.05067
3.04996
3.05067
3.05067
3.05067
3.04996
3.05067
3.05067
3.04996
3.05067
3.05067
3.05067
3.04996
3.05067
3.05067
3.04996
3.05067
3.05067
3.05067
3.04996
3.05067
3.02824
3.02753
3.02824
3.02824
3.02824
3.02753
3.02824
3.02824
3.02753
3.02824
3.02824
3.02824
3.02753
3.02824
3.02824
3.02753
3.02824
3.02824
3.02824
3.02753
3.02824
3.02824
3.02753
3.02824
3.02824
3.02824
3.02753
3.02824
3.02824
3.02753
3.02824
3.02824
3.02824
3.02753
3.02824
3.01073
3.01003
3.01073
3.01073
3.01073
3.01003
3.01073
3.01073
3.01003
3.01073
3.01073
3.01073
3.01003
3.01073
3.01073
3.01003
3.01073
3.01073
3.01073
3.01003
3.01073
3.01073
3.01003
3.01073
3.01073
3.01073
3.01003
3.01073
3.01073
3.01003
3.01073
3.01073
3.01073
3.01003
3.01073
2.99619
2.99549
2.99619
2.99619
2.99619
2.99549
2.99619
2.99619
2.99549
2.99619
2.99619
2.99619
2.99549
2.99619
2.99619
2.99549
2.99619
2.99619
2.99619
2.99549
2.99619
2.99619
2.99549
2.99619
2.99619
2.99619
2.99549
2.99619
2.99619
2.99549
2.99619
2.99619
2.99619
2.99549
2.99619
2.98435
2.98365
2.98435
2.98435
2.98435
2.98365
2.98435
2.98435
2.98365
2.98435
2.98435
2.98435
2.98365
2.98435
2.98435
2.98365
2.98435
2.98435
2.98435
2.98365
2.98435
2.98435
2.98365
2.98435
2.98435
2.98435
2.98365
2.98435
2.98435
2.98365
2.98435
2.98435
2.98435
2.98365
2.98435
2.9746
2.97391
2.9746
2.9746
2.9746
2.97391
2.9746
2.9746
2.97391
2.9746
2.9746
2.9746
2.97391
2.9746
2.9746
2.97391
2.9746
2.9746
2.9746
2.97391
2.9746
2.9746
2.97391
2.9746
2.9746
2.9746
2.97391
2.9746
2.9746
2.97391
2.9746
2.9746
2.9746
2.97391
2.9746
2.96593
2.96524
2.96593
2.96593
2.96593
2.96524
2.96593
2.96593
2.96524
2.96593
2.96593
2.96593
2.96524
2.96593
2.96593
2.96524
2.96593
2.96593
2.96593
2.96524
2.96593
2.96593
2.96524
2.96593
2.96593
2.96593
2.96524
2.96593
2.96593
2.96524
2.96593
2.96593
2.96593
2.96524
2.96593
2.95862
2.95793
2.95862
2.95862
2.95862
2.95793
2.95862
2.95862
2.95793
2.95862
2.95862
2.95862
2.95793
2.95862
2.95862
2.95793
2.95862
2.95862
2.95862
2.95793
2.95862
2.95862
2.95793
2.95862
2.95862
2.95862
2.95793
2.95862
2.95862
2.95793
2.95862
2.95862
2.95862
2.95793
2.95862
2.95227
2.95158
2.95227
2.95227
2.95227
2.95158
2.95227
2.95227
2.95158
2.95227
2.95227
2.95227
2.95158
2.95227
2.95227
2.95158
2.95227
2.95227
2.95227
2.95158
2.95227
2.95227
2.95158
2.95227
2.95227
2.95227
2.95158
2.95227
2.95227
2.95158
2.95227
2.95227
2.95227
2.95158
2.95227
2.94685
2.94617
2.94685
2.94685
2.94685
2.94617
2.94685
2.94685
2.94617
2.94685
2.94685
2.94685
2.94617
2.94685
2.94685
2.94617
2.94685
2.94685
2.94685
2.94617
2.94685
2.94685
2.94617
2.94685
2.94685
2.94685
2.94617
2.94685
2.94685
2.94617
2.94685
2.94685
2.94685
2.94617
2.94685
2.94172
2.94103
2.94172
2.94172
2.94172
2.94103
2.94172
2.94172
2.94103
2.94172
2.94172
2.94172
2.94103
2.94172
2.94172
2.94103
2.94172
2.94172
2.94172
2.94103
2.94172
2.94172
2.94103
2.94172
2.94172
2.94172
2.94103
2.94172
2.94172
2.94103
2.94172
2.94172
2.94172
2.94103
2.94172
2.9373
2.93662
2.9373
2.9373
2.9373
2.93662
2.9373
2.9373
2.93662
2.9373
2.9373
2.9373
2.93662
2.9373
2.9373
2.93662
2.9373
2.9373
2.9373
2.93662
2.9373
2.9373
2.93662
2.9373
2.9373
2.9373
2.93662
2.9373
2.9373
2.93662
2.9373
2.9373
2.9373
2.93662
2.9373
2.93353
2.93285
2.93353
2.93353
2.93353
2.93285
2.93353
2.93353
2.93285
2.93353
2.93353
2.93353
2.93285
2.93353
2.93353
2.93285
2.93353
2.93353
2.93353
2.93285
2.93353
2.93353
2.93285
2.93353
2.93353
2.93353
2.93285
2.93353
2.93353
2.93285
2.93353
2.93353
2.93353
2.93285
2.93353
22.7843
22.4199
22.0668
21.7247
21.3932
21.0714
20.7592
20.4563
20.1619
19.8761
19.5981
19.3277
19.0649
18.8089
18.5598
18.3173
18.0809
17.8507
17.6261
17.4071
17.1936
16.9852
16.7818
16.5833
16.3893
16.1999
16.0147
15.8337
15.6569
15.4838
15.3147
15.1491
14.987
14.8285
14.6732
14.5211
14.3723
14.2263
14.0834
13.9432
15.0266
14.7888
14.5584
14.3351
14.1184
13.9082
13.7042
13.5062
13.3136
13.1266
12.9447
12.7678
12.5957
12.4281
12.265
12.1061
11.9511
11.8002
11.653
11.5095
11.3694
11.2327
11.0993
10.969
10.8417
10.7173
10.5957
10.4769
10.3608
10.2471
10.1359
10.0271
9.92066
9.8164
9.71432
9.61438
9.51647
9.42046
9.32644
9.23425
13.3239
13.1162
12.9147
12.7194
12.5298
12.3459
12.1672
11.9936
11.825
11.661
11.5015
11.3463
11.1952
11.0481
10.9048
10.7652
10.6291
10.4965
10.367
10.2408
10.1175
9.99725
9.87978
9.76508
9.65295
9.54337
9.4363
9.33156
9.22911
9.1289
9.03092
8.93493
8.84097
8.74897
8.65889
8.57061
8.48412
8.39939
8.31633
8.23487
12.4972
12.3051
12.1189
11.9382
11.7629
11.5926
11.4272
11.2664
11.1102
10.958
10.8102
10.6661
10.526
10.3894
10.2564
10.1266
10.0002
9.87681
9.75651
9.63905
9.52443
9.41246
9.30315
9.19629
9.09186
8.98983
8.89001
8.79242
8.69692
8.60351
8.51203
8.42249
8.33481
8.24898
8.16486
8.08247
8.00169
7.92256
7.8449
7.76881
11.9662
11.7851
11.6094
11.4387
11.2732
11.1122
10.9559
10.8038
10.656
10.5121
10.3721
10.2357
10.1029
9.97343
9.84732
9.72432
9.60438
9.48733
9.37313
9.26161
9.15257
9.04656
8.94258
8.84094
8.74161
8.64446
8.54982
8.45689
8.36593
8.27694
8.1898
8.1045
8.02126
7.93941
7.85918
7.7806
7.70353
7.62832
7.55422
7.48159
11.5726
11.4
11.2324
11.0698
10.9118
10.7582
10.6091
10.4636
10.3227
10.1849
10.0507
9.92059
9.79325
9.66971
9.54869
9.43116
9.316
9.20363
9.0944
8.98727
8.8831
8.78099
8.68078
8.58362
8.48819
8.39528
8.30395
8.21466
8.12722
8.04163
7.95818
7.87609
7.796
7.71691
7.64003
7.56434
7.49014
7.41767
7.34604
7.27634
11.2553
11.0894
10.929
10.7732
10.6211
10.474
10.3307
10.1906
10.0553
9.92295
9.794
9.6689
9.5465
9.42708
9.31069
9.19751
9.08622
8.97847
8.87319
8.76955
8.66911
8.57058
8.47422
8.38039
8.28828
8.19812
8.10995
8.02395
7.93911
7.85673
7.77599
7.69628
7.61882
7.54261
7.46787
7.39464
7.3231
7.25262
7.18353
7.11598
10.9847
10.8254
10.6713
10.521
10.3748
10.2332
10.0948
9.95964
9.82909
9.70139
9.57697
9.45616
9.3379
9.22258
9.1105
9.00068
8.89349
8.78878
8.68655
8.58668
8.48943
8.394
8.3007
8.20979
8.1205
8.03315
7.94797
7.86426
7.78196
7.70203
7.62339
7.54636
7.47114
7.39713
7.32457
7.2537
7.18391
7.11546
7.04828
6.98238
10.7471
10.5935
10.4442
10.2991
10.1579
10.0206
9.88694
9.75734
9.63103
9.5075
9.3871
9.2697
9.1552
9.0435
8.93492
8.8285
8.72458
8.62308
8.52431
8.42739
8.33264
8.24038
8.14977
8.06113
7.97441
7.88953
7.80644
7.72508
7.64573
7.56795
7.49146
7.4165
7.34302
7.27099
7.20036
7.13136
7.0634
6.99672
6.93129
6.86733
10.5319
10.3836
10.2393
10.0989
9.96296
9.83004
9.70064
9.57508
9.45178
9.33257
9.21584
9.102
8.9914
8.88299
8.77717
8.67388
8.57295
8.47476
8.37839
8.2842
8.19248
8.10237
8.01391
7.92804
7.84364
7.76137
7.68046
7.60123
7.52392
7.44758
7.37336
7.30031
7.22868
7.15875
7.08986
7.02228
6.95602
6.89094
6.82735
6.76467
10.3345
10.1908
10.0512
9.91585
9.78354
9.65478
9.52929
9.40754
9.28842
9.17223
9.05895
8.94839
8.84095
8.73566
8.63281
8.53277
8.43465
8.33872
8.24499
8.15331
8.06401
7.97632
7.89049
7.80683
7.72426
7.64407
7.56523
7.48798
7.41259
7.33842
7.26571
7.19445
7.12454
7.05626
6.98903
6.92303
6.85854
6.79501
6.73261
6.67138
10.1509
10.0118
9.87691
9.74514
9.61686
9.49187
9.37014
9.25192
9.13621
9.02336
8.91368
8.80623
8.70132
8.59889
8.49886
8.40149
8.30596
8.21257
8.12162
8.03198
7.94496
7.85947
7.77581
7.69421
7.61402
7.53578
7.45854
7.38317
7.30958
7.23715
7.16613
7.0968
7.02852
6.96152
6.89581
6.83132
6.76827
6.70613
6.64514
6.58546
9.97914
9.84421
9.71288
9.58501
9.46046
9.33911
9.22129
9.10595
8.99346
8.88416
8.77706
8.67249
8.57041
8.47109
8.37364
8.27843
8.18536
8.09434
8.00534
7.91827
7.83375
7.75035
7.66871
7.58878
7.51051
7.43382
7.35867
7.28531
7.21313
7.14238
7.07299
7.00518
6.93844
6.87294
6.80891
6.74582
6.68389
6.62308
6.56337
6.50472
9.81582
9.6854
9.55787
9.43367
9.31315
9.19518
9.08015
8.96843
8.859
8.75218
8.64791
8.54613
8.44671
8.34994
8.25497
8.16218
8.07178
7.983
7.89619
7.81121
7.72839
7.64666
7.56695
7.48921
7.41273
7.33779
7.26467
7.1927
7.12213
7.0532
6.98534
6.91877
6.85343
6.78935
6.72644
6.66494
6.60431
6.54475
6.48652
6.42907
9.6617
9.53447
9.4106
9.28988
9.17268
9.05793
8.94604
8.83732
8.73033
8.62677
8.52521
8.42602
8.32946
8.23475
8.14219
8.05164
7.96346
7.87651
7.79209
7.70946
7.62825
7.54874
7.47084
7.39487
7.31983
7.24688
7.17536
7.10467
7.03593
6.96822
6.9018
6.83664
6.77297
6.71021
6.64859
6.58835
6.52872
6.47061
6.4133
6.35701
9.51411
9.39048
9.27048
9.15307
9.03854
8.9269
8.81799
8.71211
8.60835
8.50697
8.40798
8.31167
8.21717
8.12477
8.03476
7.94607
7.86
7.77542
7.69297
7.61194
7.53228
7.45487
7.37874
7.30446
7.23137
7.15971
7.08946
7.02059
6.95329
6.88704
6.82203
6.75822
6.69582
6.63436
6.57402
6.51473
6.45652
6.39957
6.3434
6.28841
9.37327
9.25304
9.13583
9.02156
8.91012
8.80182
8.69569
8.59209
8.49094
8.39216
8.29604
8.20168
8.10944
8.01929
7.93112
7.84487
7.76077
7.67848
7.5976
7.5184
7.44084
7.36515
7.29069
7.21774
7.14622
7.07611
7.00764
6.94022
6.87406
6.80915
6.74547
6.68322
6.62187
6.56161
6.50244
6.44435
6.38751
6.33144
6.27634
6.2224
9.23711
9.12058
9.00649
8.89523
8.78668
8.68118
8.57775
8.47676
8.37852
8.28214
8.18796
8.0959
8.00627
7.91822
7.83206
7.74811
7.66563
7.58489
7.50552
7.42839
7.35254
7.27821
7.20537
7.13427
7.06427
6.99564
6.92859
6.86255
6.79776
6.7342
6.67204
6.61077
6.55062
6.49181
6.43381
6.37683
6.32085
6.26605
6.21198
6.15885
9.10697
8.99304
8.88196
8.77356
8.66821
8.56493
8.46412
8.36564
8.2698
8.17537
8.08381
7.99428
7.90636
7.82036
7.73621
7.6542
7.57325
7.49462
7.41729
7.34185
7.26734
7.19491
7.12359
7.05399
6.98519
6.91824
6.85229
6.78761
6.72412
6.66206
6.60089
6.54086
6.48188
6.42419
6.36706
6.31138
6.25668
6.20269
6.14966
6.09749
8.98098
8.87005
8.76222
8.65658
8.55344
8.45276
8.35478
8.25869
8.16476
8.07297
7.98358
7.89578
7.80955
7.72585
7.64361
7.5634
7.48424
7.40733
7.3317
7.25787
7.18495
7.11403
7.04424
6.97607
6.90895
6.84309
6.77849
6.71534
6.65312
6.59202
6.53205
6.47339
6.41555
6.35872
6.30291
6.24828
6.19437
6.14118
6.0893
6.03809
1.66785
1.68443
1.7012
1.7182
1.73533
1.7531
1.7715
1.79043
1.81029
1.83106
1.6822
1.69878
1.71521
1.7322
1.74967
1.76779
1.78586
1.80478
1.82463
1.84507
1.69655
1.71312
1.72956
1.74689
1.76403
1.78179
1.79986
1.81913
1.83898
1.85942
1.7109
1.72714
1.7439
1.76091
1.77836
1.79615
1.81454
1.83349
1.85299
1.87375
1.72491
1.74149
1.75859
1.77525
1.79272
1.81015
1.82889
1.84748
1.86734
1.88845
1.73925
1.75583
1.7726
1.78926
1.80706
1.82484
1.84325
1.86183
1.88169
1.90246
1.7536
1.77018
1.78695
1.80395
1.82142
1.83884
1.85725
1.87618
1.89604
1.91681
1.76795
1.78453
1.80129
1.81829
1.83543
1.85319
1.8716
1.89053
1.91038
1.93115
1.78229
1.79887
1.81531
1.8323
1.84977
1.86788
1.88596
1.90487
1.92473
1.94517
1.79664
1.81322
1.82965
1.84699
1.86413
1.88188
1.89996
1.91922
1.93908
1.95951
1.811
1.82724
1.84399
1.861
1.87846
1.89624
1.91464
1.93358
1.95309
1.97384
1.825
1.84158
1.85868
1.87535
1.89282
1.91024
1.92898
1.94758
1.96744
1.98854
1.83935
1.85593
1.8727
1.88935
1.90716
1.92494
1.94334
1.96193
1.98179
2.00255
1.85369
1.87028
1.88704
1.90404
1.92151
1.93894
1.95735
1.97627
1.99613
2.0169
1.86804
1.88462
1.90139
1.91839
1.93553
1.95328
1.97169
1.99062
2.01048
2.03125
1.88239
1.89897
1.9154
1.93239
1.94986
1.96798
1.98605
2.00497
2.02483
2.04526
1.89673
1.91332
1.92975
1.94708
1.96422
1.98198
2.00005
2.01931
2.03917
2.05961
1.91109
1.92733
1.94409
1.96109
1.97856
1.99634
2.01473
2.03367
2.05319
2.07394
1.92509
1.94168
1.95878
1.97544
1.99292
2.01034
2.02908
2.04767
2.06754
2.08863
1.93944
1.95603
1.97279
1.98944
2.00725
2.02503
2.04344
2.06202
2.08188
2.10265
1.95379
1.97037
1.98714
2.00413
2.02161
2.03903
2.05744
2.07637
2.09623
2.11699
1.96813
1.98472
2.00149
2.01848
2.03562
2.05338
2.07179
2.09071
2.11058
2.13134
1.98248
1.99907
2.0155
2.03248
2.04996
2.06807
2.08615
2.10506
2.12492
2.14535
1.99683
2.01342
2.02985
2.04717
2.06432
2.08207
2.10015
2.11941
2.13927
2.1597
2.01118
2.02743
2.04419
2.06119
2.07866
2.09643
2.11483
2.13377
2.15329
2.17403
2.02519
2.04178
2.05888
2.07553
2.09301
2.11043
2.12918
2.14777
2.16763
2.18873
2.03953
2.05612
2.07289
2.08954
2.10735
2.12512
2.14354
2.16211
2.18198
2.20274
2.05388
2.07047
2.08724
2.10423
2.12171
2.13912
2.15754
2.17646
2.19633
2.21709
2.06823
2.08482
2.10158
2.11857
2.13572
2.15347
2.17189
2.19081
2.21067
2.23143
2.08257
2.09916
2.1156
2.13258
2.15006
2.16816
2.18625
2.20515
2.22502
2.24545
2.09692
2.11351
2.12995
2.14727
2.16442
2.18216
2.20025
2.2195
2.23937
2.25979
2.11128
2.12753
2.14428
2.16128
2.17875
2.19652
2.21493
2.23386
2.25338
2.27412
2.12528
2.14187
2.15897
2.17563
2.19311
2.21052
2.22928
2.24786
2.26773
2.28882
2.13963
2.15622
2.17299
2.18963
2.20745
2.22522
2.24363
2.26221
2.28208
2.30283
2.15397
2.17057
2.18733
2.20432
2.2218
2.23922
2.25764
2.27655
2.29642
2.31718
1.62844
1.66545
1.70202
1.73914
1.77584
1.81258
1.84991
1.88682
1.9243
1.9614
1.66447
1.70099
1.73755
1.77468
1.81136
1.84862
1.88595
1.92285
1.95985
1.99692
1.70001
1.73652
1.77359
1.81071
1.8474
1.88415
1.92148
1.95838
1.99537
2.03296
1.73554
1.77255
1.80963
1.84625
1.88293
1.92019
1.95702
1.99391
2.03141
2.069
1.77158
1.80859
1.84516
1.88178
1.91897
1.95572
1.99254
2.02995
2.06744
2.10453
1.80761
1.84413
1.88069
1.91731
1.9545
1.99175
2.02858
2.06599
2.10298
2.14006
1.84314
1.87966
1.91673
1.95335
1.99054
2.02729
2.06411
2.10152
2.13851
2.1761
1.87868
1.91569
1.95226
1.98938
2.02607
2.06282
2.10014
2.13705
2.17454
2.21163
1.91471
1.95123
1.98779
2.02491
2.0616
2.09886
2.13619
2.17309
2.21008
2.24716
1.95025
1.98676
2.02383
2.06095
2.09764
2.13439
2.17171
2.20862
2.24561
2.2832
1.98577
2.02279
2.05986
2.09649
2.13317
2.17042
2.20725
2.24415
2.28164
2.31924
2.02181
2.05883
2.0954
2.13202
2.16921
2.20596
2.24278
2.28019
2.31768
2.35477
2.05785
2.09437
2.13092
2.16755
2.20474
2.24199
2.27882
2.31622
2.35322
2.3903
2.09338
2.12989
2.16697
2.20358
2.24078
2.27753
2.31435
2.35176
2.38875
2.42634
2.12892
2.16593
2.2025
2.23962
2.27631
2.31306
2.35038
2.38729
2.42478
2.46187
2.16495
2.20147
2.23803
2.27515
2.31184
2.34909
2.38642
2.42333
2.46032
2.4974
2.20048
2.237
2.27407
2.31119
2.34788
2.38463
2.42195
2.45886
2.49585
2.53344
2.23601
2.27303
2.3101
2.34673
2.38341
2.42066
2.45749
2.49439
2.53188
2.56947
2.27205
2.30906
2.34564
2.38225
2.41945
2.4562
2.49302
2.53043
2.56792
2.60501
2.30809
2.3446
2.38116
2.41779
2.45497
2.49223
2.52906
2.56646
2.60346
2.64053
2.34362
2.38013
2.4172
2.45382
2.49101
2.52776
2.56459
2.602
2.63898
2.67658
2.37915
2.41617
2.45274
2.48986
2.52655
2.5633
2.60062
2.63753
2.67502
2.71211
2.41519
2.45171
2.48826
2.52539
2.56208
2.59933
2.63666
2.67356
2.71056
2.74764
2.45072
2.48723
2.52431
2.56142
2.59812
2.63487
2.67219
2.7091
2.74609
2.78368
2.48625
2.52327
2.56034
2.59696
2.63364
2.6709
2.70773
2.74462
2.78212
2.81971
2.52229
2.5593
2.59587
2.63249
2.66968
2.70643
2.74326
2.78067
2.81815
2.85525
2.55832
2.59484
2.6314
2.66803
2.70521
2.74247
2.7793
2.8167
2.8537
2.89077
2.59386
2.63037
2.66744
2.70406
2.74125
2.778
2.81482
2.85223
2.88922
2.92681
2.62939
2.6664
2.70297
2.74009
2.77679
2.81354
2.85086
2.88777
2.92526
2.96235
2.66542
2.70194
2.7385
2.77563
2.81231
2.84957
2.8869
2.9238
2.9608
2.99787
2.70096
2.73747
2.77454
2.81166
2.84835
2.8851
2.92243
2.95933
2.99632
3.03392
2.73649
2.77351
2.81058
2.8472
2.88388
2.92114
2.95797
2.99486
3.03236
3.06995
2.77253
2.80954
2.84611
2.88273
2.91992
2.95667
2.99349
3.0309
3.06839
3.10548
2.80856
2.84508
2.88164
2.91826
2.95545
2.99271
3.02954
3.06694
3.10393
3.14101
2.84409
2.88061
2.91768
2.9543
2.99149
3.02824
3.06506
3.10247
3.13946
3.17705
4.74768
4.7477
4.74766
4.74766
4.74771
4.74766
4.74766
4.74771
4.74766
4.74766
4.74787
4.74751
4.74751
4.74802
4.74751
4.74525
4.74527
4.74523
4.74523
4.74528
4.74523
4.74523
4.74528
4.74523
4.74523
4.74544
4.74508
4.74508
4.74559
4.74508
4.74297
4.74299
4.74295
4.74295
4.743
4.74295
4.74295
4.743
4.74295
4.74295
4.74315
4.7428
4.7428
4.74331
4.7428
4.74082
4.74084
4.74081
4.74081
4.74086
4.74081
4.74081
4.74086
4.74081
4.74081
4.74101
4.74065
4.74065
4.74116
4.74065
4.7388
4.73882
4.73879
4.73879
4.73884
4.73879
4.73879
4.73884
4.73879
4.73879
4.73899
4.73863
4.73863
4.73914
4.73863
4.73689
4.73691
4.73688
4.73688
4.73693
4.73688
4.73688
4.73693
4.73688
4.73688
4.73708
4.73673
4.73673
4.73723
4.73673
4.73508
4.7351
4.73507
4.73507
4.73512
4.73507
4.73507
4.73512
4.73507
4.73507
4.73527
4.73492
4.73492
4.73542
4.73492
4.73338
4.73341
4.73337
4.73337
4.73342
4.73337
4.73337
4.73342
4.73337
4.73337
4.73357
4.73322
4.73322
4.73372
4.73322
4.73177
4.73179
4.73175
4.73175
4.7318
4.73175
4.73175
4.7318
4.73175
4.73175
4.73195
4.7316
4.7316
4.73211
4.7316
4.73023
4.73025
4.73022
4.73022
4.73027
4.73022
4.73022
4.73027
4.73022
4.73022
4.73042
4.73006
4.73006
4.73057
4.73006
)
;

boundaryField
{
    inlet_one
    {
        type            zeroGradient;
    }
    inlet_two
    {
        type            zeroGradient;
    }
    outlet
    {
        type            zeroGradient;
    }
    walls
    {
        type            zeroGradient;
    }
    front
    {
        type            wedge;
    }
    back
    {
        type            wedge;
    }
}


// ************************************************************************* //
