/*--------------------------------*- C++ -*----------------------------------*\
| =========                 |                                                 |
| \\      /  F ield         | OpenFOAM: The Open Source CFD Toolbox           |
|  \\    /   O peration     | Version:  plus                                  |
|   \\  /    A nd           | Web:      www.OpenFOAM.com                      |
|    \\/     M anipulation  |                                                 |
\*---------------------------------------------------------------------------*/
FoamFile
{
    version     2.0;
    format      ascii;
    class       volScalarField;
    location    "0";
    object      cellVolumeRatio;
}
// * * * * * * * * * * * * * * * * * * * * * * * * * * * * * * * * * * * * * //

dimensions      [0 0 0 0 0 0 0];


internalField   nonuniform List<scalar> 
2650
(
0.333334
0.333334
0.333334
0.333334
0.333333
0.333333
0.333333
0.333332
0.333332
0.333333
0.333334
0.333334
0.333333
0.333334
0.333335
0.333334
0.333334
0.333334
0.333334
0.333333
0.333333
0.333333
0.333332
0.333332
0.333333
0.333334
0.333334
0.333333
0.333334
0.333335
0.599999
0.6
0.600002
0.600001
0.600002
0.600001
0.600002
0.600004
0.600002
0.6
0.599998
0.599996
0.599998
0.599998
0.410104
0.714286
0.714284
0.714284
0.714284
0.714282
0.714281
0.714282
0.714283
0.714283
0.714286
0.71429
0.71429
0.714288
0.714288
0.410103
0.777776
0.777773
0.777766
0.777776
0.777791
0.777787
0.777779
0.777777
0.777782
0.777779
0.777774
0.777776
0.77778
0.777778
0.410102
0.81819
0.818194
0.818199
0.818187
0.818173
0.818176
0.818182
0.818175
0.818183
0.8182
0.818194
0.818184
0.818177
0.818182
0.410103
0.846154
0.846154
0.846154
0.846135
0.846134
0.846154
0.846154
0.84616
0.846147
0.846131
0.846138
0.846144
0.846139
0.846146
0.410106
0.866649
0.866667
0.866667
0.866686
0.866687
0.866667
0.866667
0.866667
0.866667
0.866666
0.866667
0.866667
0.8667
0.866689
0.410104
0.882353
0.882334
0.882353
0.882353
0.882353
0.882353
0.882353
0.882353
0.882353
0.882353
0.882353
0.882378
0.882353
0.882325
0.410104
0.894755
0.894753
0.894735
0.894736
0.894737
0.894737
0.894737
0.894759
0.89476
0.894737
0.894737
0.894711
0.89471
0.894737
0.41009
0.904762
0.904742
0.904742
0.904763
0.904762
0.90476
0.904761
0.904739
0.904738
0.904762
0.904787
0.904788
0.904762
0.90479
0.410117
0.913043
0.913064
0.913064
0.913043
0.913024
0.913023
0.913044
0.913044
0.913043
0.913043
0.913018
0.913017
0.913071
0.913044
0.410104
0.919981
0.920001
0.920001
0.919999
0.920021
0.920024
0.919999
0.92
0.92
0.920023
0.920025
0.920001
0.919973
0.918387
0.41009
0.925945
0.925925
0.925907
0.925908
0.925926
0.925926
0.925925
0.925925
0.925925
0.925901
0.925902
0.924567
0.921641
0.918417
0.410104
0.931015
0.931014
0.931053
0.931055
0.931035
0.931034
0.931036
0.931036
0.931035
0.929854
0.927308
0.924568
0.921586
0.918417
0.410117
0.935503
0.935504
0.935485
0.935483
0.935482
0.935484
0.935485
0.934453
0.932231
0.929855
0.927309
0.924568
0.921613
0.918419
0.410104
0.939395
0.939395
0.939395
0.939394
0.939394
0.938482
0.936532
0.934453
0.932231
0.92983
0.927308
0.924566
0.92161
0.918417
0.41009
0.942839
0.942837
0.942836
0.942048
0.940318
0.938483
0.936533
0.934428
0.93223
0.929883
0.927308
0.924565
0.921614
0.918417
0.410103
0.945965
0.945221
0.943678
0.942047
0.940317
0.938483
0.936533
0.934452
0.932232
0.929858
0.927308
0.924566
0.921584
0.918415
0.410117
0.946681
0.945221
0.943699
0.942047
0.940295
0.938484
0.936533
0.934452
0.932232
0.929856
0.927282
0.924565
0.921639
0.918387
0.41009
0.333334
0.333334
0.333334
0.333334
0.333334
0.333334
0.333334
0.333334
0.333334
0.333334
0.333334
0.333334
0.333334
0.333334
0.333334
0.333334
0.333334
0.333334
0.333334
0.333334
0.333334
0.333334
0.333334
0.333334
0.333334
0.333334
0.333334
0.333334
0.333334
0.333334
0.333334
0.333334
0.333334
0.333334
0.240877
0.333334
0.333334
0.333334
0.333334
0.333334
0.333334
0.333334
0.333334
0.333334
0.333334
0.333334
0.333334
0.333334
0.333334
0.333334
0.333334
0.333334
0.333334
0.333334
0.333334
0.333334
0.333334
0.333334
0.333334
0.333334
0.333334
0.333334
0.333334
0.333334
0.333334
0.333334
0.333334
0.333334
0.333334
0.240877
0.410104
0.599996
0.599996
0.599996
0.599996
0.599996
0.599996
0.599996
0.599996
0.599996
0.599996
0.599996
0.599996
0.599996
0.599996
0.599996
0.599996
0.599996
0.599996
0.599996
0.599996
0.599996
0.599996
0.599996
0.599996
0.599996
0.599996
0.599996
0.599996
0.599996
0.599996
0.599996
0.599996
0.599996
0.240878
0.410103
0.71429
0.71429
0.71429
0.71429
0.71429
0.71429
0.71429
0.71429
0.71429
0.71429
0.71429
0.71429
0.71429
0.71429
0.71429
0.71429
0.71429
0.71429
0.71429
0.71429
0.71429
0.71429
0.71429
0.71429
0.71429
0.71429
0.71429
0.71429
0.71429
0.71429
0.71429
0.71429
0.71429
0.240878
0.410102
0.777778
0.777778
0.777778
0.777778
0.777778
0.777778
0.777778
0.777778
0.777778
0.777778
0.777778
0.777778
0.777778
0.777778
0.777778
0.777778
0.777778
0.777778
0.777778
0.777778
0.777778
0.777778
0.777778
0.777778
0.777778
0.777778
0.777778
0.777778
0.777778
0.777778
0.777778
0.777778
0.777778
0.240877
0.410103
0.818182
0.818182
0.818182
0.818182
0.818182
0.818182
0.818182
0.818182
0.818182
0.818182
0.818182
0.818182
0.818182
0.818182
0.818182
0.818182
0.818182
0.818182
0.818182
0.818182
0.818182
0.818182
0.818182
0.818182
0.818182
0.818182
0.818182
0.818182
0.818182
0.818182
0.818182
0.818182
0.818182
0.240877
0.410106
0.846153
0.846153
0.846153
0.846153
0.846153
0.846153
0.846153
0.846153
0.846153
0.846153
0.846153
0.846153
0.846153
0.846153
0.846153
0.846153
0.846153
0.846153
0.846153
0.846153
0.846153
0.846153
0.846153
0.846153
0.846153
0.846153
0.846153
0.846153
0.846153
0.846153
0.846153
0.846153
0.846153
0.24088
0.410104
0.866649
0.866649
0.866649
0.866649
0.866649
0.866649
0.866649
0.866649
0.866649
0.866649
0.866649
0.866649
0.866649
0.866649
0.866649
0.866649
0.866649
0.866649
0.866649
0.866649
0.866649
0.866649
0.866649
0.866649
0.866649
0.866649
0.866649
0.866649
0.866649
0.866649
0.866649
0.866649
0.866649
0.240876
0.410104
0.882353
0.882353
0.882353
0.882353
0.882353
0.882353
0.882353
0.882353
0.882353
0.882353
0.882353
0.882353
0.882353
0.882353
0.882353
0.882353
0.882353
0.882353
0.882353
0.882353
0.882353
0.882353
0.882353
0.882353
0.882353
0.882353
0.882353
0.882353
0.882353
0.882353
0.882353
0.882353
0.882353
0.240884
0.41009
0.894797
0.894797
0.894797
0.894797
0.894797
0.894797
0.894797
0.894797
0.894797
0.894797
0.894797
0.894797
0.894797
0.894797
0.894797
0.894797
0.894797
0.894797
0.894797
0.894797
0.894797
0.894797
0.894797
0.894797
0.894797
0.894797
0.894797
0.894797
0.894797
0.894797
0.894797
0.894797
0.894797
0.240867
0.410117
0.904702
0.904702
0.904702
0.904702
0.904702
0.904702
0.904702
0.904702
0.904702
0.904702
0.904702
0.904702
0.904702
0.904702
0.904702
0.904702
0.904702
0.904702
0.904702
0.904702
0.904702
0.904702
0.904702
0.904702
0.904702
0.904702
0.904702
0.904702
0.904702
0.904702
0.904702
0.904702
0.904702
0.240884
0.410104
0.913044
0.913044
0.913044
0.913044
0.913044
0.913044
0.913044
0.913044
0.913044
0.913044
0.913044
0.913044
0.913044
0.913044
0.913044
0.913044
0.913044
0.913044
0.913044
0.913044
0.913044
0.913044
0.913044
0.913044
0.913044
0.913044
0.913044
0.913044
0.913044
0.913044
0.913044
0.913044
0.913044
0.240876
0.41009
0.920061
0.920061
0.920061
0.920061
0.920061
0.920061
0.920061
0.920061
0.920061
0.920061
0.920061
0.920061
0.920061
0.920061
0.920061
0.920061
0.920061
0.920061
0.920061
0.920061
0.920061
0.920061
0.920061
0.920061
0.920061
0.920061
0.920061
0.920061
0.920061
0.920061
0.920061
0.920061
0.920061
0.240875
0.410104
0.925864
0.925864
0.925864
0.925864
0.925864
0.925864
0.925864
0.925864
0.925864
0.925864
0.925864
0.925864
0.925864
0.925864
0.925864
0.925864
0.925864
0.925864
0.925864
0.925864
0.925864
0.925864
0.925864
0.925864
0.925864
0.925864
0.925864
0.925864
0.925864
0.925864
0.925864
0.925864
0.925864
0.240876
0.410117
0.931035
0.931035
0.931035
0.931035
0.931035
0.931035
0.931035
0.931035
0.931035
0.931035
0.931035
0.931035
0.931035
0.931035
0.931035
0.931035
0.931035
0.931035
0.931035
0.931035
0.931035
0.931035
0.931035
0.931035
0.931035
0.931035
0.931035
0.931035
0.931035
0.931035
0.931035
0.931035
0.931035
0.240883
0.410104
0.935482
0.935482
0.935482
0.935482
0.935482
0.935482
0.935482
0.935482
0.935482
0.935482
0.935482
0.935482
0.935482
0.935482
0.935482
0.935482
0.935482
0.935482
0.935482
0.935482
0.935482
0.935482
0.935482
0.935482
0.935482
0.935482
0.935482
0.935482
0.935482
0.935482
0.935482
0.935482
0.935482
0.240876
0.41009
0.939459
0.939459
0.939459
0.939459
0.939459
0.939459
0.939459
0.939459
0.939459
0.939459
0.939459
0.939459
0.939459
0.939459
0.939459
0.939459
0.939459
0.939459
0.939459
0.939459
0.939459
0.939459
0.939459
0.939459
0.939459
0.939459
0.939459
0.939459
0.939459
0.939459
0.939459
0.939459
0.939459
0.240876
0.410103
0.942798
0.942798
0.942798
0.942798
0.942798
0.942798
0.942798
0.942798
0.942798
0.942798
0.942798
0.942798
0.942798
0.942798
0.942798
0.942798
0.942798
0.942798
0.942798
0.942798
0.942798
0.942798
0.942798
0.942798
0.942798
0.942798
0.942798
0.942798
0.942798
0.942798
0.942798
0.942798
0.942798
0.240875
0.410117
0.945945
0.945945
0.945945
0.945945
0.945945
0.945945
0.945945
0.945945
0.945945
0.945945
0.945945
0.945945
0.945945
0.945945
0.945945
0.945945
0.945945
0.945945
0.945945
0.945945
0.945945
0.945945
0.945945
0.945945
0.945945
0.945945
0.945945
0.945945
0.945945
0.945945
0.945945
0.945945
0.945945
0.240883
0.41009
0.466577
0.466632
0.466688
0.466632
0.466577
0.466632
0.466632
0.466577
0.466632
0.466688
0.466632
0.466577
0.466632
0.466632
0.466577
0.466632
0.466688
0.466632
0.466577
0.466632
0.466632
0.466577
0.466632
0.466688
0.466632
0.466577
0.466632
0.466632
0.466577
0.466632
0.466688
0.466632
0.466577
0.240867
0.240877
0.333333
0.333332
0.333334
0.333333
0.333332
0.333334
0.333334
0.333333
0.333332
0.333332
0.333334
0.333333
0.333332
0.333334
0.333334
0.333333
0.333332
0.333332
0.333334
0.333333
0.333333
0.333335
0.333335
0.333335
0.333334
0.333333
0.333335
0.333334
0.333334
0.333333
0.333333
0.333335
0.333334
0.333333
0.333335
0.333335
0.333333
0.333332
0.333332
0.240877
0.333333
0.333332
0.333334
0.333333
0.333332
0.333334
0.333334
0.333333
0.333332
0.333332
0.333334
0.333333
0.333332
0.333334
0.333334
0.333333
0.333332
0.333332
0.333334
0.333333
0.333333
0.333335
0.333335
0.333335
0.333334
0.333333
0.333335
0.333334
0.333334
0.333333
0.333333
0.333335
0.333334
0.333333
0.333335
0.333335
0.333333
0.333332
0.333332
0.240878
0.600002
0.600002
0.599998
0.6
0.600001
0.599999
0.599997
0.6
0.600004
0.600002
0.599998
0.6
0.600002
0.599999
0.599998
0.600001
0.600004
0.600002
0.599999
0.600001
0.600001
0.599998
0.599998
0.599998
0.599999
0.600001
0.599998
0.599997
0.599999
0.600001
0.600002
0.599999
0.6
0.600001
0.599999
0.599998
0.6
0.600002
0.600001
0.240878
0.714286
0.714284
0.714286
0.714286
0.714286
0.714288
0.71429
0.714286
0.714281
0.714284
0.714286
0.714286
0.714286
0.714289
0.714287
0.714283
0.714283
0.714285
0.714287
0.714287
0.714286
0.714287
0.714285
0.714283
0.714285
0.714285
0.714287
0.714288
0.714288
0.714286
0.714284
0.714286
0.714286
0.714286
0.714287
0.714289
0.714286
0.714283
0.714284
0.240877
0.777778
0.77778
0.777778
0.777775
0.777775
0.777775
0.777775
0.777778
0.77778
0.77778
0.77778
0.777778
0.777776
0.777776
0.777778
0.77778
0.777779
0.77778
0.77778
0.777772
0.77778
0.777791
0.777785
0.77778
0.777769
0.77778
0.777791
0.777783
0.777776
0.777771
0.777765
0.777776
0.777786
0.777779
0.777773
0.777767
0.777778
0.777789
0.777782
0.240877
0.818179
0.818177
0.818182
0.818187
0.818184
0.818192
0.818189
0.818191
0.818194
0.818173
0.818176
0.818183
0.818189
0.81819
0.818192
0.818194
0.818175
0.818177
0.818179
0.818198
0.818184
0.818143
0.818161
0.818178
0.818197
0.818176
0.818156
0.818173
0.818171
0.818187
0.818203
0.818183
0.818164
0.81818
0.818196
0.818194
0.818175
0.818157
0.818172
0.24088
0.846159
0.846154
0.846167
0.846154
0.846149
0.846149
0.846144
0.846129
0.84614
0.846173
0.846158
0.846165
0.846149
0.846136
0.846145
0.846132
0.846163
0.846171
0.846158
0.846137
0.846154
0.846195
0.846174
0.846174
0.846154
0.846154
0.846173
0.846154
0.846173
0.846173
0.846154
0.846154
0.846172
0.846154
0.846136
0.846171
0.846171
0.846171
0.846171
0.240876
0.866655
0.866678
0.866648
0.866672
0.866693
0.866672
0.866667
0.866667
0.866642
0.866642
0.866666
0.866642
0.866667
0.86669
0.866666
0.866689
0.866667
0.866623
0.866645
0.866667
0.866645
0.866645
0.866666
0.866646
0.866667
0.866687
0.866667
0.866667
0.866647
0.866628
0.866648
0.866666
0.866648
0.866667
0.866685
0.866649
0.866667
0.866667
0.866632
0.240884
0.882382
0.882353
0.882353
0.882326
0.882299
0.8823
0.882353
0.882404
0.882404
0.882378
0.882353
0.882353
0.882329
0.882329
0.882353
0.88233
0.882353
0.882398
0.882375
0.882353
0.882375
0.882374
0.882353
0.882353
0.882332
0.882312
0.882312
0.882353
0.882392
0.882392
0.882372
0.882353
0.882353
0.882334
0.882334
0.882353
0.882335
0.882353
0.882388
0.240867
0.894708
0.894737
0.894737
0.894765
0.894792
0.894791
0.894737
0.894685
0.894711
0.894737
0.894737
0.894761
0.894785
0.894737
0.894713
0.894737
0.894737
0.894737
0.894737
0.894759
0.894737
0.894694
0.894716
0.894737
0.894758
0.894778
0.894777
0.894737
0.894697
0.894717
0.894736
0.894736
0.894755
0.894774
0.894736
0.894717
0.894738
0.894738
0.894738
0.240884
0.904762
0.904733
0.904791
0.904762
0.904734
0.904762
0.904762
0.904788
0.904762
0.904736
0.904762
0.904737
0.904737
0.904786
0.904786
0.904786
0.904762
0.904739
0.904762
0.904739
0.904762
0.904806
0.904783
0.904762
0.904741
0.904742
0.904763
0.904763
0.904783
0.904761
0.904741
0.904761
0.904742
0.904742
0.904781
0.904781
0.90478
0.904762
0.904744
0.240876
0.913044
0.913073
0.913015
0.913044
0.913043
0.913016
0.913043
0.913017
0.913044
0.913069
0.913069
0.913069
0.913019
0.913019
0.913044
0.913019
0.913044
0.913067
0.913042
0.913043
0.913021
0.913021
0.913044
0.913066
0.913087
0.913043
0.913022
0.913043
0.913023
0.913044
0.913063
0.913063
0.913063
0.913025
0.913025
0.913045
0.913024
0.913042
0.91306
0.240875
0.92003
0.92
0.92
0.919971
0.92
0.920028
0.92
0.92
0.92
0.919999
0.919975
0.920001
0.920049
0.920025
0.92
0.919999
0.919976
0.919953
0.919977
0.920024
0.920045
0.920022
0.920001
0.919977
0.919956
0.92
0.920021
0.92
0.919999
0.919981
0.919981
0.91998
0.92
0.92004
0.92002
0.920001
0.92
0.919981
0.919963
0.240876
0.925896
0.925926
0.925926
0.925955
0.925954
0.925927
0.925955
0.92598
0.925926
0.925901
0.925926
0.925899
0.9259
0.925926
0.925925
0.92595
0.925974
0.925972
0.92595
0.925904
0.92588
0.925881
0.925904
0.925925
0.925925
0.925927
0.925926
0.925926
0.925947
0.925966
0.925927
0.925908
0.925906
0.925887
0.925907
0.925925
0.925926
0.925947
0.925964
0.240883
0.931035
0.931005
0.931033
0.931005
0.931007
0.931034
0.931007
0.930981
0.931035
0.931034
0.931008
0.93106
0.931035
0.931008
0.931034
0.931012
0.930986
0.931011
0.931059
0.931057
0.931057
0.93108
0.931057
0.931035
0.931056
0.931056
0.931034
0.931054
0.931035
0.931015
0.931054
0.931054
0.931055
0.931074
0.931053
0.931032
0.931053
0.931034
0.931015
0.240876
0.935485
0.935514
0.935512
0.935513
0.935457
0.935456
0.935482
0.93551
0.935483
0.935483
0.93551
0.935458
0.935485
0.93551
0.935485
0.935484
0.935508
0.93551
0.935461
0.93546
0.935461
0.935461
0.935484
0.935507
0.935483
0.93544
0.935464
0.935463
0.935483
0.935483
0.935463
0.935484
0.935464
0.935463
0.935463
0.935466
0.935464
0.935483
0.935502
0.240876
0.939425
0.939394
0.939365
0.939393
0.939451
0.939424
0.939394
0.939365
0.939393
0.93942
0.939394
0.939394
0.939369
0.939344
0.939368
0.939394
0.939396
0.939394
0.939393
0.939417
0.93944
0.939417
0.939394
0.939372
0.939395
0.939437
0.939414
0.939394
0.939373
0.939393
0.939414
0.939394
0.939394
0.939374
0.939395
0.939414
0.939394
0.939374
0.939376
0.240875
0.942826
0.942857
0.942858
0.942827
0.942826
0.942857
0.942859
0.942887
0.942885
0.942857
0.942857
0.942883
0.942907
0.942907
0.942908
0.942908
0.942857
0.942808
0.942833
0.942833
0.942811
0.942811
0.942835
0.942858
0.942836
0.942835
0.942856
0.942856
0.942856
0.942858
0.942858
0.942857
0.942878
0.942897
0.942876
0.942855
0.942876
0.942897
0.942859
0.240883
0.945946
0.945916
0.945947
0.945976
0.945945
0.945916
0.945944
0.945917
0.945892
0.945922
0.945974
0.945946
0.945921
0.945947
0.945922
0.945896
0.945944
0.945993
0.945969
0.945945
0.945969
0.945992
0.945969
0.945946
0.945969
0.945947
0.945926
0.945946
0.945966
0.945945
0.945925
0.945946
0.945925
0.945905
0.945927
0.945967
0.945947
0.945928
0.945965
0.240867
0.948718
0.948748
0.948749
0.948719
0.948719
0.948746
0.948745
0.948744
0.948744
0.948744
0.948691
0.948692
0.948692
0.948692
0.948716
0.948716
0.948692
0.948693
0.948717
0.948717
0.948696
0.948696
0.948718
0.948741
0.948719
0.948719
0.948741
0.948741
0.94872
0.948719
0.948738
0.948738
0.948738
0.948738
0.948738
0.948699
0.948698
0.948698
0.948698
0.684926
0.956316
0.953112
0.949322
0.945327
0.940783
0.935582
0.929431
0.922368
0.466632
0.684836
0.956196
0.952993
0.949557
0.94556
0.940669
0.935468
0.929431
0.922261
0.466577
0.684926
0.956316
0.953112
0.949322
0.945327
0.940783
0.935582
0.929431
0.922368
0.466632
0.684926
0.956315
0.953116
0.949437
0.945446
0.94078
0.935584
0.929209
0.922365
0.466688
0.684926
0.956316
0.953112
0.949322
0.945327
0.940783
0.935582
0.929431
0.922368
0.466632
0.684836
0.956196
0.952993
0.949557
0.94556
0.940669
0.935468
0.929431
0.922261
0.466577
0.684926
0.956316
0.953112
0.949322
0.945327
0.940783
0.935582
0.929431
0.922368
0.466632
0.684926
0.956316
0.953112
0.949322
0.945327
0.940783
0.935582
0.929431
0.922368
0.466632
0.684836
0.956196
0.952993
0.949557
0.94556
0.940669
0.935468
0.929431
0.922261
0.466577
0.684926
0.956316
0.953112
0.949322
0.945327
0.940783
0.935582
0.929431
0.922368
0.466632
0.684926
0.956315
0.953116
0.949437
0.945446
0.94078
0.935584
0.929209
0.922365
0.466688
0.684926
0.956316
0.953112
0.949322
0.945327
0.940783
0.935582
0.929431
0.922368
0.466632
0.684836
0.956196
0.952993
0.949557
0.94556
0.940669
0.935468
0.929431
0.922261
0.466577
0.684926
0.956316
0.953112
0.949322
0.945327
0.940783
0.935582
0.929431
0.922368
0.466632
0.684926
0.956316
0.953112
0.949322
0.945327
0.940783
0.935582
0.929431
0.922368
0.466632
0.684836
0.956196
0.952993
0.949557
0.94556
0.940669
0.935468
0.929431
0.922261
0.466577
0.684926
0.956316
0.953112
0.949322
0.945327
0.940783
0.935582
0.929431
0.922368
0.466632
0.684926
0.956315
0.953116
0.949437
0.945446
0.94078
0.935584
0.929209
0.922365
0.466688
0.684926
0.956316
0.953112
0.949322
0.945327
0.940783
0.935582
0.929431
0.922368
0.466632
0.684836
0.956196
0.952993
0.949557
0.94556
0.940669
0.935468
0.929431
0.922261
0.466577
0.684926
0.956316
0.953112
0.949322
0.945327
0.940783
0.935582
0.929431
0.922368
0.466632
0.684926
0.956316
0.953112
0.949322
0.945327
0.940783
0.935582
0.929431
0.922368
0.466632
0.684836
0.956196
0.952993
0.949557
0.94556
0.940669
0.935468
0.929431
0.922261
0.466577
0.684926
0.956316
0.953112
0.949322
0.945327
0.940783
0.935582
0.929431
0.922368
0.466632
0.684926
0.956315
0.953116
0.949437
0.945446
0.94078
0.935584
0.929209
0.922365
0.466688
0.684926
0.956316
0.953112
0.949322
0.945327
0.940783
0.935582
0.929431
0.922368
0.466632
0.684836
0.956196
0.952993
0.949557
0.94556
0.940669
0.935468
0.929431
0.922261
0.466577
0.684926
0.956316
0.953112
0.949322
0.945327
0.940783
0.935582
0.929431
0.922368
0.466632
0.684926
0.956316
0.953112
0.949322
0.945327
0.940783
0.935582
0.929431
0.922368
0.466632
0.684836
0.956196
0.952993
0.949557
0.94556
0.940669
0.935468
0.929431
0.922261
0.466577
0.684926
0.956316
0.953112
0.949322
0.945327
0.940783
0.935582
0.929431
0.922368
0.466632
0.684926
0.956315
0.953116
0.949437
0.945446
0.94078
0.935584
0.929209
0.922365
0.466688
0.684926
0.956316
0.953112
0.949322
0.945327
0.940783
0.935582
0.929431
0.922368
0.466632
0.684836
0.956196
0.952993
0.949557
0.94556
0.940669
0.935468
0.929431
0.922261
0.466577
0.684926
0.956316
0.953112
0.949322
0.945327
0.940783
0.935582
0.929431
0.922368
0.466632
0.34055
0.34821
0.355871
0.363531
0.371192
0.378799
0.386459
0.39412
0.40178
0.40944
0.996453
0.995303
0.99429
0.993101
0.99203
0.990649
0.989376
0.987936
0.986584
0.684836
0.996608
0.995455
0.994286
0.9931
0.991747
0.99065
0.98938
0.988068
0.986715
0.684926
0.996765
0.995604
0.994138
0.992954
0.99203
0.990512
0.989243
0.988203
0.986843
0.684926
0.996608
0.995455
0.994286
0.9931
0.991747
0.99065
0.98938
0.988068
0.986715
0.684926
0.996453
0.995303
0.99429
0.993101
0.99203
0.990649
0.989376
0.987936
0.986584
0.684836
0.996608
0.995455
0.994286
0.9931
0.991747
0.99065
0.98938
0.988068
0.986715
0.684926
0.996608
0.995455
0.994286
0.9931
0.991747
0.99065
0.98938
0.988068
0.986715
0.684926
0.996453
0.995303
0.99429
0.993101
0.99203
0.990649
0.989376
0.987936
0.986584
0.684836
0.996608
0.995455
0.994286
0.9931
0.991747
0.99065
0.98938
0.988068
0.986715
0.684926
0.996765
0.995604
0.994138
0.992954
0.99203
0.990512
0.989243
0.988203
0.986843
0.684926
0.996608
0.995455
0.994286
0.9931
0.991747
0.99065
0.98938
0.988068
0.986715
0.684926
0.996453
0.995303
0.99429
0.993101
0.99203
0.990649
0.989376
0.987936
0.986584
0.684836
0.996608
0.995455
0.994286
0.9931
0.991747
0.99065
0.98938
0.988068
0.986715
0.684926
0.996608
0.995455
0.994286
0.9931
0.991747
0.99065
0.98938
0.988068
0.986715
0.684926
0.996453
0.995303
0.99429
0.993101
0.99203
0.990649
0.989376
0.987936
0.986584
0.684836
0.996608
0.995455
0.994286
0.9931
0.991747
0.99065
0.98938
0.988068
0.986715
0.684926
0.996765
0.995604
0.994138
0.992954
0.99203
0.990512
0.989243
0.988203
0.986843
0.684926
0.996608
0.995455
0.994286
0.9931
0.991747
0.99065
0.98938
0.988068
0.986715
0.684926
0.996453
0.995303
0.99429
0.993101
0.99203
0.990649
0.989376
0.987936
0.986584
0.684836
0.996608
0.995455
0.994286
0.9931
0.991747
0.99065
0.98938
0.988068
0.986715
0.684926
0.996608
0.995455
0.994286
0.9931
0.991747
0.99065
0.98938
0.988068
0.986715
0.684926
0.996453
0.995303
0.99429
0.993101
0.99203
0.990649
0.989376
0.987936
0.986584
0.684836
0.996608
0.995455
0.994286
0.9931
0.991747
0.99065
0.98938
0.988068
0.986715
0.684926
0.996765
0.995604
0.994138
0.992954
0.99203
0.990512
0.989243
0.988203
0.986843
0.684926
0.996608
0.995455
0.994286
0.9931
0.991747
0.99065
0.98938
0.988068
0.986715
0.684926
0.996453
0.995303
0.99429
0.993101
0.99203
0.990649
0.989376
0.987936
0.986584
0.684836
0.996608
0.995455
0.994286
0.9931
0.991747
0.99065
0.98938
0.988068
0.986715
0.684926
0.996608
0.995455
0.994286
0.9931
0.991747
0.99065
0.98938
0.988068
0.986715
0.684926
0.996453
0.995303
0.99429
0.993101
0.99203
0.990649
0.989376
0.987936
0.986584
0.684836
0.996608
0.995455
0.994286
0.9931
0.991747
0.99065
0.98938
0.988068
0.986715
0.684926
0.996765
0.995604
0.994138
0.992954
0.99203
0.990512
0.989243
0.988203
0.986843
0.684926
0.996608
0.995455
0.994286
0.9931
0.991747
0.99065
0.98938
0.988068
0.986715
0.684926
0.996453
0.995303
0.99429
0.993101
0.99203
0.990649
0.989376
0.987936
0.986584
0.684836
0.996608
0.995455
0.994286
0.9931
0.991747
0.99065
0.98938
0.988068
0.986715
0.684926
0.968254
0.968254
0.968254
0.968254
0.968254
0.968254
0.968254
0.968254
0.968254
0.968254
0.968254
0.968254
0.968254
0.968254
0.40944
0.968254
0.968254
0.968254
0.968254
0.968254
0.968254
0.968254
0.968254
0.968254
0.968254
0.968254
0.968254
0.968254
0.968254
0.40178
0.96923
0.96923
0.96923
0.96923
0.96923
0.96923
0.96923
0.96923
0.96923
0.96923
0.96923
0.96923
0.96923
0.96923
0.39412
0.970149
0.970149
0.970149
0.970149
0.970149
0.970149
0.970149
0.970149
0.970149
0.970149
0.970149
0.970149
0.970149
0.970149
0.386459
0.971014
0.971014
0.971014
0.971014
0.971014
0.971014
0.971014
0.971014
0.971014
0.971014
0.971014
0.971014
0.971014
0.971014
0.378799
0.971831
0.971831
0.971831
0.971831
0.971831
0.971831
0.971831
0.971831
0.971831
0.971831
0.971831
0.971831
0.971831
0.971831
0.371192
0.972604
0.972604
0.972604
0.972604
0.972604
0.972604
0.972604
0.972604
0.972604
0.972604
0.972604
0.972604
0.972604
0.972604
0.363531
0.973334
0.973334
0.973334
0.973334
0.973334
0.973334
0.973334
0.973334
0.973334
0.973334
0.973334
0.973334
0.973334
0.973334
0.355871
0.974026
0.974026
0.974026
0.974026
0.974026
0.974026
0.974026
0.974026
0.974026
0.974026
0.974026
0.974026
0.974026
0.974026
0.34821
0.974683
0.974683
0.974683
0.974683
0.974683
0.974683
0.974683
0.974683
0.974683
0.974683
0.974683
0.974683
0.974683
0.974683
0.34055
)
;

boundaryField
{
    inlet_one
    {
        type            calculated;
        value           uniform 1;
    }
    inlet_two
    {
        type            calculated;
        value           uniform 1;
    }
    outlet
    {
        type            calculated;
        value           uniform 1;
    }
    walls
    {
        type            calculated;
        value           uniform 1;
    }
    front
    {
        type            wedge;
    }
    back
    {
        type            wedge;
    }
}


// ************************************************************************* //
