/*--------------------------------*- C++ -*----------------------------------*\
| =========                 |                                                 |
| \\      /  F ield         | OpenFOAM: The Open Source CFD Toolbox           |
|  \\    /   O peration     | Version:  plus                                  |
|   \\  /    A nd           | Web:      www.OpenFOAM.com                      |
|    \\/     M anipulation  |                                                 |
\*---------------------------------------------------------------------------*/
FoamFile
{
    version     2.0;
    format      ascii;
    class       volScalarField;
    location    "0";
    object      cellDeterminant;
}
// * * * * * * * * * * * * * * * * * * * * * * * * * * * * * * * * * * * * * //

dimensions      [0 0 0 0 0 0 0];


internalField   nonuniform List<scalar> 
2650
(
0.0182797
0.123311
0.119101
0.114862
0.110595
0.106305
0.101995
0.0976695
0.0933317
0.0889871
0.0846404
0.0802964
0.0759614
0.071642
0.0673441
0.0514169
0.216511
0.209121
0.201679
0.19419
0.186659
0.179093
0.1715
0.163886
0.156258
0.148627
0.141002
0.133393
0.12581
0.118266
0.0481145
0.202603
0.195688
0.188724
0.181716
0.174669
0.167589
0.160483
0.153358
0.146222
0.139082
0.131948
0.124827
0.117732
0.110673
0.0471866
0.198704
0.191921
0.185091
0.178218
0.171307
0.164363
0.157394
0.150406
0.143406
0.136402
0.129405
0.122422
0.115463
0.108539
0.0467849
0.197023
0.1903
0.183524
0.176704
0.169852
0.162969
0.156059
0.149129
0.142189
0.135245
0.128306
0.121381
0.114482
0.107617
0.0465587
0.196086
0.189392
0.182651
0.175867
0.169046
0.162193
0.155317
0.148418
0.141506
0.134597
0.127692
0.120802
0.113934
0.107101
0.0464064
0.195462
0.188789
0.182073
0.175311
0.168505
0.161674
0.154817
0.147942
0.141056
0.134166
0.127282
0.120414
0.113567
0.106753
0.0462873
0.194981
0.188323
0.181618
0.174871
0.168087
0.161271
0.154431
0.147572
0.140702
0.13383
0.126962
0.120104
0.113274
0.106486
0.0461864
0.194573
0.187923
0.181231
0.174497
0.167726
0.160924
0.154098
0.147253
0.140397
0.133538
0.12668
0.11984
0.113031
0.106252
0.0460865
0.194184
0.187551
0.180872
0.174149
0.167391
0.160602
0.153783
0.14695
0.140113
0.133267
0.126426
0.1196
0.112799
0.106028
0.0459909
0.193815
0.187194
0.180521
0.17381
0.167064
0.160287
0.153484
0.146665
0.139834
0.132996
0.126167
0.119359
0.112566
0.105811
0.0458939
0.193435
0.186824
0.180167
0.173473
0.166739
0.159969
0.153178
0.146371
0.139553
0.132732
0.125917
0.119111
0.112334
0.105599
0.0457939
0.193049
0.186449
0.179805
0.173118
0.166395
0.159642
0.152864
0.146069
0.139259
0.13245
0.125653
0.118866
0.112103
0.10537
0.0456897
0.192648
0.186066
0.179433
0.172754
0.166043
0.159303
0.152538
0.145756
0.138963
0.132169
0.125375
0.1186
0.111856
0.105142
0.0455839
0.192236
0.185656
0.179035
0.172374
0.165676
0.158949
0.152197
0.145429
0.13865
0.131869
0.125093
0.118334
0.111594
0.104893
0.0454672
0.191793
0.185232
0.178624
0.171976
0.165291
0.158578
0.15184
0.145086
0.138321
0.131555
0.124794
0.118049
0.111328
0.104644
0.0453478
0.191336
0.184788
0.178193
0.171559
0.164889
0.15819
0.151467
0.144727
0.137977
0.131221
0.124475
0.117746
0.11104
0.104372
0.0452227
0.190862
0.184328
0.177742
0.171123
0.164468
0.157784
0.151075
0.144347
0.137612
0.130881
0.124152
0.117438
0.11075
0.104096
0.0450916
0.190356
0.183836
0.177271
0.170667
0.164027
0.157359
0.150666
0.143958
0.137241
0.130521
0.123809
0.117111
0.110435
0.103798
0.0489794
0.242353
0.237633
0.232709
0.227572
0.222212
0.21664
0.210845
0.204829
0.198589
0.192124
0.185433
0.178523
0.171402
0.164057
0.186526
0.186568
0.186526
0.186526
0.186526
0.186568
0.186526
0.186526
0.186568
0.186526
0.186526
0.186526
0.186568
0.186526
0.186526
0.186568
0.186526
0.186526
0.186526
0.186568
0.186526
0.186526
0.186568
0.186526
0.186526
0.186526
0.186568
0.186526
0.186526
0.186568
0.186526
0.186526
0.186526
0.186568
0.186526
0.327508
0.327581
0.327508
0.327508
0.327508
0.327581
0.327508
0.327508
0.327581
0.327508
0.327508
0.327508
0.327581
0.327508
0.327508
0.327581
0.327508
0.327508
0.327508
0.327581
0.327508
0.327508
0.327581
0.327508
0.327508
0.327508
0.327581
0.327508
0.327508
0.327581
0.327508
0.327508
0.327508
0.327581
0.327508
0.306549
0.306618
0.306549
0.306549
0.306549
0.306618
0.306549
0.306549
0.306618
0.306549
0.306549
0.306549
0.306618
0.306549
0.306549
0.306618
0.306549
0.306549
0.306549
0.306618
0.306549
0.306549
0.306618
0.306549
0.306549
0.306549
0.306618
0.306549
0.306549
0.306618
0.306549
0.306549
0.306549
0.306618
0.306549
0.300772
0.30084
0.300772
0.300772
0.300772
0.30084
0.300772
0.300772
0.30084
0.300772
0.300772
0.300772
0.30084
0.300772
0.300772
0.30084
0.300772
0.300772
0.300772
0.30084
0.300772
0.300772
0.30084
0.300772
0.300772
0.300772
0.30084
0.300772
0.300772
0.30084
0.300772
0.300772
0.300772
0.30084
0.300772
0.298396
0.298463
0.298396
0.298396
0.298396
0.298463
0.298396
0.298396
0.298463
0.298396
0.298396
0.298396
0.298463
0.298396
0.298396
0.298463
0.298396
0.298396
0.298396
0.298463
0.298396
0.298396
0.298463
0.298396
0.298396
0.298396
0.298463
0.298396
0.298396
0.298463
0.298396
0.298396
0.298396
0.298463
0.298396
0.297193
0.29726
0.297193
0.297193
0.297193
0.29726
0.297193
0.297193
0.29726
0.297193
0.297193
0.297193
0.29726
0.297193
0.297193
0.29726
0.297193
0.297193
0.297193
0.29726
0.297193
0.297193
0.29726
0.297193
0.297193
0.297193
0.29726
0.297193
0.297193
0.29726
0.297193
0.297193
0.297193
0.29726
0.297193
0.296501
0.296568
0.296501
0.296501
0.296501
0.296568
0.296501
0.296501
0.296568
0.296501
0.296501
0.296501
0.296568
0.296501
0.296501
0.296568
0.296501
0.296501
0.296501
0.296568
0.296501
0.296501
0.296568
0.296501
0.296501
0.296501
0.296568
0.296501
0.296501
0.296568
0.296501
0.296501
0.296501
0.296568
0.296501
0.296073
0.296139
0.296073
0.296073
0.296073
0.296139
0.296073
0.296073
0.296139
0.296073
0.296073
0.296073
0.296139
0.296073
0.296073
0.296139
0.296073
0.296073
0.296073
0.296139
0.296073
0.296073
0.296139
0.296073
0.296073
0.296073
0.296139
0.296073
0.296073
0.296139
0.296073
0.296073
0.296073
0.296139
0.296073
0.295783
0.295849
0.295783
0.295783
0.295783
0.295849
0.295783
0.295783
0.295849
0.295783
0.295783
0.295783
0.295849
0.295783
0.295783
0.295849
0.295783
0.295783
0.295783
0.295849
0.295783
0.295783
0.295849
0.295783
0.295783
0.295783
0.295849
0.295783
0.295783
0.295849
0.295783
0.295783
0.295783
0.295849
0.295783
0.29556
0.295627
0.29556
0.29556
0.29556
0.295627
0.29556
0.29556
0.295627
0.29556
0.29556
0.29556
0.295627
0.29556
0.29556
0.295627
0.29556
0.29556
0.29556
0.295627
0.29556
0.29556
0.295627
0.29556
0.29556
0.29556
0.295627
0.29556
0.29556
0.295627
0.29556
0.29556
0.29556
0.295627
0.29556
0.295431
0.295497
0.295431
0.295431
0.295431
0.295497
0.295431
0.295431
0.295497
0.295431
0.295431
0.295431
0.295497
0.295431
0.295431
0.295497
0.295431
0.295431
0.295431
0.295497
0.295431
0.295431
0.295497
0.295431
0.295431
0.295431
0.295497
0.295431
0.295431
0.295497
0.295431
0.295431
0.295431
0.295497
0.295431
0.29532
0.295386
0.29532
0.29532
0.29532
0.295386
0.29532
0.29532
0.295386
0.29532
0.29532
0.29532
0.295386
0.29532
0.29532
0.295386
0.29532
0.29532
0.29532
0.295386
0.29532
0.29532
0.295386
0.29532
0.29532
0.29532
0.295386
0.29532
0.29532
0.295386
0.29532
0.29532
0.29532
0.295386
0.29532
0.295215
0.295282
0.295215
0.295215
0.295215
0.295282
0.295215
0.295215
0.295282
0.295215
0.295215
0.295215
0.295282
0.295215
0.295215
0.295282
0.295215
0.295215
0.295215
0.295282
0.295215
0.295215
0.295282
0.295215
0.295215
0.295215
0.295282
0.295215
0.295215
0.295282
0.295215
0.295215
0.295215
0.295282
0.295215
0.295167
0.295233
0.295167
0.295167
0.295167
0.295233
0.295167
0.295167
0.295233
0.295167
0.295167
0.295167
0.295233
0.295167
0.295167
0.295233
0.295167
0.295167
0.295167
0.295233
0.295167
0.295167
0.295233
0.295167
0.295167
0.295167
0.295233
0.295167
0.295167
0.295233
0.295167
0.295167
0.295167
0.295233
0.295167
0.295113
0.29518
0.295113
0.295113
0.295113
0.29518
0.295113
0.295113
0.29518
0.295113
0.295113
0.295113
0.29518
0.295113
0.295113
0.29518
0.295113
0.295113
0.295113
0.29518
0.295113
0.295113
0.29518
0.295113
0.295113
0.295113
0.29518
0.295113
0.295113
0.29518
0.295113
0.295113
0.295113
0.29518
0.295113
0.295069
0.295136
0.295069
0.295069
0.295069
0.295136
0.295069
0.295069
0.295136
0.295069
0.295069
0.295069
0.295136
0.295069
0.295069
0.295136
0.295069
0.295069
0.295069
0.295136
0.295069
0.295069
0.295136
0.295069
0.295069
0.295069
0.295136
0.295069
0.295069
0.295136
0.295069
0.295069
0.295069
0.295136
0.295069
0.295014
0.295081
0.295014
0.295014
0.295014
0.295081
0.295014
0.295014
0.295081
0.295014
0.295014
0.295014
0.295081
0.295014
0.295014
0.295081
0.295014
0.295014
0.295014
0.295081
0.295014
0.295014
0.295081
0.295014
0.295014
0.295014
0.295081
0.295014
0.295014
0.295081
0.295014
0.295014
0.295014
0.295081
0.295014
0.295003
0.29507
0.295003
0.295003
0.295003
0.29507
0.295003
0.295003
0.29507
0.295003
0.295003
0.295003
0.29507
0.295003
0.295003
0.29507
0.295003
0.295003
0.295003
0.29507
0.295003
0.295003
0.29507
0.295003
0.295003
0.295003
0.29507
0.295003
0.295003
0.29507
0.295003
0.295003
0.295003
0.29507
0.295003
0.294978
0.295044
0.294978
0.294978
0.294978
0.295044
0.294978
0.294978
0.295044
0.294978
0.294978
0.294978
0.295044
0.294978
0.294978
0.295044
0.294978
0.294978
0.294978
0.295044
0.294978
0.294978
0.295044
0.294978
0.294978
0.294978
0.295044
0.294978
0.294978
0.295044
0.294978
0.294978
0.294978
0.295044
0.294978
0.294937
0.295004
0.294937
0.294937
0.294937
0.295004
0.294937
0.294937
0.295004
0.294937
0.294937
0.294937
0.295004
0.294937
0.294937
0.295004
0.294937
0.294937
0.294937
0.295004
0.294937
0.294937
0.295004
0.294937
0.294937
0.294937
0.295004
0.294937
0.294937
0.295004
0.294937
0.294937
0.294937
0.295004
0.294937
0.027111
0.0278675
0.0286302
0.0293991
0.0301737
0.0309541
0.0317402
0.0325317
0.0333285
0.0341305
0.0349376
0.0357498
0.0365667
0.0373883
0.0382146
0.0390452
0.0398801
0.0407193
0.0415625
0.0424099
0.043261
0.0441159
0.0449746
0.0458367
0.0467022
0.047571
0.0484431
0.0493185
0.0501967
0.0510778
0.0519618
0.0528486
0.0537381
0.05463
0.0555244
0.0564213
0.0573204
0.0582216
0.0591249
0.00753063
0.0476043
0.0489329
0.050272
0.0516215
0.0529818
0.0543523
0.055732
0.0571217
0.058521
0.0599295
0.0613466
0.0627721
0.0642067
0.0656494
0.0670997
0.0685581
0.0700244
0.071498
0.0729786
0.0744659
0.0759606
0.0774618
0.0789689
0.0804825
0.0820022
0.083528
0.0850595
0.0865958
0.0881378
0.0896853
0.0912377
0.0927946
0.0943559
0.0959222
0.0974929
0.0990671
0.100646
0.102228
0.103815
0.0211806
0.0445578
0.0458008
0.0470542
0.0483178
0.0495908
0.0508732
0.0521652
0.0534661
0.0547753
0.0560931
0.0574198
0.0587545
0.060097
0.0614472
0.0628051
0.0641701
0.065542
0.066921
0.0683071
0.0696998
0.0710985
0.0725034
0.0739146
0.0753314
0.0767537
0.0781816
0.0796148
0.0810534
0.0824969
0.083945
0.0853975
0.0868548
0.0883166
0.0897824
0.0912523
0.0927263
0.0942041
0.0956848
0.0971691
0.0198248
0.043717
0.0449371
0.0461671
0.0474066
0.0486556
0.0499139
0.0511812
0.0524574
0.0537424
0.0550359
0.0563372
0.0576466
0.0589637
0.0602884
0.0616205
0.0629601
0.0643066
0.0656596
0.0670193
0.0683854
0.0697577
0.0711362
0.0725204
0.0739107
0.0753066
0.0767072
0.0781134
0.0795245
0.0809406
0.0823614
0.0837871
0.0852171
0.0866512
0.0880893
0.0895314
0.0909773
0.092427
0.0938804
0.0953373
0.019451
0.0433707
0.0445808
0.0458008
0.0470307
0.0482701
0.0495184
0.0507756
0.0520417
0.0533163
0.0545992
0.0558903
0.0571892
0.0584962
0.0598106
0.0611322
0.0624608
0.0637964
0.0651387
0.0664876
0.0678429
0.0692055
0.0705718
0.0719435
0.0733236
0.0747092
0.0761004
0.0774936
0.078892
0.080298
0.0817087
0.0831239
0.0845434
0.0859643
0.0873894
0.0888213
0.0902569
0.0916961
0.093136
0.0945793
0.0192964
0.0431942
0.0443997
0.045615
0.0468394
0.0480732
0.0493167
0.0505681
0.0518293
0.0530983
0.0543759
0.055664
0.0569573
0.0582583
0.0595665
0.0608825
0.0622054
0.0635353
0.0648746
0.0662177
0.0675672
0.0689217
0.0702846
0.0716564
0.0730283
0.0744059
0.0757886
0.0771795
0.078575
0.0799728
0.081378
0.0827849
0.0841962
0.0856145
0.0870369
0.0884602
0.0898875
0.0913212
0.0927585
0.094199
0.0192189
0.0430908
0.0442939
0.0455067
0.046727
0.0479592
0.0492002
0.0504486
0.0517073
0.052975
0.0542483
0.0555299
0.0568218
0.0581187
0.0594259
0.0607401
0.062059
0.0633873
0.0647196
0.0660586
0.0674064
0.0687605
0.0701178
0.071481
0.0728525
0.0742266
0.075609
0.0769963
0.078386
0.0797832
0.0811822
0.0825858
0.0839966
0.0854115
0.0868276
0.0882507
0.0896772
0.0911018
0.0925357
0.0939727
0.019172
0.0430283
0.0442276
0.0454368
0.0466579
0.0478859
0.0491231
0.0503717
0.0516289
0.0528947
0.0541687
0.0554482
0.0567357
0.0580333
0.0593357
0.0606455
0.0619649
0.0632885
0.0646217
0.0659638
0.0673069
0.0686563
0.0700143
0.0713753
0.0727421
0.074117
0.0754943
0.076877
0.0782673
0.0796623
0.0810621
0.0824664
0.0838721
0.0852822
0.086699
0.0881169
0.0895387
0.0909668
0.0923955
0.0938306
0.0191442
0.0429811
0.0441793
0.0453896
0.0466094
0.0478387
0.0490771
0.0503243
0.0515751
0.0528347
0.0541073
0.0553881
0.0566767
0.057973
0.0592768
0.0605851
0.0619006
0.0632255
0.0645544
0.06589
0.0672344
0.0685851
0.0699389
0.0712986
0.0726666
0.0740401
0.0754188
0.0768027
0.0781916
0.0795796
0.0809724
0.0823752
0.0837824
0.0851937
0.0866091
0.0880284
0.0894486
0.0908725
0.0923026
0.0937332
0.019123
0.0429489
0.0441483
0.0453553
0.0465743
0.0478
0.049035
0.0502814
0.0515364
0.0527999
0.054069
0.0553463
0.056634
0.0579266
0.0592268
0.0605396
0.0618565
0.0631779
0.0645058
0.0658403
0.0671838
0.0685306
0.0698863
0.0712503
0.0726145
0.0739843
0.0753592
0.0767394
0.0781272
0.0795198
0.0809171
0.082316
0.0837193
0.0851296
0.0865411
0.0879565
0.0893815
0.0908069
0.0922332
0.0936627
0.0191086
0.0429239
0.044123
0.0453315
0.0465449
0.0477727
0.0490092
0.0502524
0.0515067
0.0527669
0.0540381
0.055317
0.0566014
0.057896
0.0591953
0.0605021
0.0618184
0.0631389
0.0644689
0.0658051
0.0671452
0.0684941
0.0698461
0.071204
0.0725702
0.0739419
0.0753188
0.076698
0.0780824
0.0794742
0.0808678
0.0822689
0.0836741
0.0850808
0.0864944
0.0879089
0.0893273
0.0907521
0.0921775
0.0936093
0.0190989
0.0429067
0.0441026
0.0453084
0.0465261
0.0477506
0.0489869
0.0502318
0.0514831
0.0527453
0.0540132
0.0552892
0.0565729
0.057867
0.059171
0.0604769
0.0617901
0.0631127
0.0644393
0.0657725
0.0671145
0.0684628
0.069817
0.0711741
0.0725371
0.0739053
0.075279
0.0766632
0.0780495
0.079438
0.0808338
0.0822313
0.0836332
0.0850392
0.0864522
0.0878718
0.0892894
0.0907108
0.0921385
0.0935665
0.0190888
0.0428857
0.0440835
0.0452912
0.0465085
0.0477351
0.0489682
0.0502104
0.0514636
0.0527254
0.0539927
0.0552683
0.0565541
0.0578449
0.0591434
0.0604515
0.0617668
0.0630889
0.0644177
0.065753
0.0670918
0.0684342
0.0697852
0.0711447
0.0725097
0.0738803
0.0752561
0.0766342
0.0780174
0.0794081
0.0808034
0.0822032
0.0836045
0.0850101
0.0864196
0.0878331
0.0892531
0.0906767
0.0921039
0.0935343
0.0190828
0.0428765
0.0440715
0.0452765
0.0464933
0.047717
0.0489499
0.0501941
0.0514443
0.0527032
0.0539754
0.0552528
0.0565358
0.0578289
0.0591267
0.060432
0.0617468
0.0630658
0.0643915
0.0657264
0.0670675
0.0684149
0.0697681
0.0711271
0.072489
0.0738565
0.0752318
0.0766095
0.0779923
0.0793825
0.0807745
0.0821712
0.0835778
0.0849855
0.0863947
0.0878105
0.0892272
0.0906477
0.0920743
0.0935014
0.0190752
0.0428617
0.044059
0.0452658
0.04648
0.0477059
0.0489383
0.0501797
0.0514322
0.0526932
0.0539598
0.0552372
0.0565221
0.0578097
0.05911
0.0604173
0.0617292
0.0630505
0.0643785
0.0657102
0.0670457
0.0683928
0.0697455
0.0711015
0.0724658
0.0738355
0.0752077
0.0765851
0.0779701
0.0793571
0.0807518
0.0821506
0.0835512
0.0849588
0.0863674
0.08778
0.0891993
0.090622
0.0920454
0.0934751
0.019071
0.042853
0.0440474
0.0452517
0.0464654
0.0476911
0.0489281
0.0501691
0.0514189
0.0526769
0.0539459
0.0552227
0.056505
0.0577974
0.0590945
0.0603991
0.0617132
0.0630342
0.0643591
0.0656907
0.0670312
0.0683777
0.0697303
0.0710858
0.0724471
0.0738137
0.0751885
0.0765709
0.0779528
0.0793396
0.0807309
0.0821297
0.0835325
0.084937
0.0863482
0.0877603
0.0891793
0.0906016
0.0920248
0.0934511
0.0190647
0.0428378
0.0440344
0.0452408
0.0464567
0.0476794
0.0489113
0.0501546
0.0514065
0.0526668
0.0539328
0.055207
0.0564914
0.0577835
0.0590831
0.0603899
0.061701
0.0630191
0.0643437
0.065675
0.0670151
0.0683586
0.0697082
0.0710662
0.0724298
0.0737989
0.0751704
0.0765472
0.0779316
0.0793208
0.0807146
0.08211
0.08351
0.0849168
0.0863277
0.0877424
0.089158
0.0905774
0.092003
0.093432
0.0190614
0.0428328
0.0440266
0.0452304
0.0464461
0.047671
0.0489026
0.0501431
0.0513947
0.0526522
0.053918
0.0551944
0.0564786
0.0577677
0.0590644
0.0603709
0.0616817
0.0629995
0.0643293
0.0656655
0.0670026
0.0683459
0.0696979
0.0710556
0.0724162
0.0737822
0.0751563
0.0765326
0.077914
0.0793029
0.0806965
0.0820916
0.0834912
0.0848978
0.0863055
0.0877171
0.0891354
0.0905572
0.0919796
0.0934054
0.0190557
0.0428209
0.0440171
0.0452228
0.0464358
0.047658
0.048892
0.0501345
0.0513835
0.0526433
0.0539113
0.0551848
0.0564635
0.0577552
0.059054
0.0603577
0.061671
0.0629911
0.0643151
0.0656458
0.0669854
0.0683311
0.06968
0.0710347
0.0723978
0.0737663
0.0751372
0.0765162
0.0778999
0.0792858
0.0806762
0.0820741
0.083476
0.0848795
0.0862898
0.0877039
0.089119
0.0905348
0.09196
0.0933882
0.0190514
0.0827244
0.0846368
0.0865463
0.0884557
0.0903689
0.0922808
0.094188
0.0960934
0.0980009
0.0999058
0.101804
0.103703
0.105599
0.107491
0.109374
0.111254
0.113133
0.115006
0.116871
0.11873
0.120587
0.122437
0.124278
0.126113
0.12794
0.129765
0.131582
0.133389
0.135188
0.136983
0.138769
0.140545
0.142312
0.144074
0.145828
0.14757
0.149307
0.151034
0.152753
0.0242541
0.191802
0.190033
0.18829
0.186573
0.184906
0.183228
0.181563
0.179934
0.178321
0.176751
0.435543
0.43459
0.433663
0.432628
0.431608
0.430502
0.429471
0.428357
0.427254
0.426227
0.431946
0.431022
0.430154
0.429095
0.428135
0.427078
0.426101
0.424963
0.423888
0.422911
0.428299
0.427426
0.426499
0.425558
0.424566
0.423575
0.42254
0.421517
0.420497
0.419464
0.424589
0.423724
0.422745
0.421915
0.420929
0.420014
0.418931
0.418016
0.416997
0.415917
0.420752
0.419917
0.419024
0.418191
0.417208
0.416305
0.415307
0.41439
0.413401
0.412407
0.416844
0.41604
0.415209
0.414354
0.413427
0.412574
0.411635
0.410696
0.409737
0.408797
0.41287
0.412098
0.411298
0.410474
0.409667
0.408755
0.407846
0.406938
0.406008
0.405098
0.408836
0.408095
0.407385
0.406554
0.405753
0.404855
0.404035
0.40312
0.402221
0.401401
0.404746
0.404037
0.403394
0.402538
0.401794
0.400942
0.400187
0.399249
0.39838
0.397619
0.400648
0.399986
0.399277
0.398551
0.397775
0.396998
0.396176
0.395365
0.394549
0.393722
0.396517
0.39587
0.395099
0.394497
0.39372
0.393023
0.392144
0.391452
0.390644
0.389763
0.39229
0.391675
0.390993
0.390382
0.389614
0.388935
0.388145
0.387445
0.386667
0.385876
0.388027
0.387443
0.386831
0.386196
0.38548
0.384847
0.384123
0.3834
0.382653
0.381924
0.383731
0.383178
0.382598
0.381994
0.381406
0.380707
0.380015
0.379322
0.378606
0.377908
0.379408
0.378886
0.378396
0.377779
0.377203
0.376523
0.37592
0.375216
0.374531
0.373922
0.37506
0.37457
0.374152
0.373511
0.372984
0.372346
0.371813
0.371085
0.37043
0.369887
0.370741
0.370292
0.369801
0.369295
0.368737
0.368177
0.367572
0.366976
0.366368
0.365753
0.366413
0.365983
0.365426
0.365046
0.364481
0.364001
0.363333
0.362861
0.362265
0.36159
0.362019
0.361619
0.36115
0.360755
0.360203
0.359745
0.359165
0.358678
0.358112
0.357526
0.357617
0.357247
0.356851
0.356431
0.355925
0.355506
0.354996
0.354485
0.353949
0.353429
0.35321
0.35287
0.352503
0.352113
0.351736
0.351247
0.350766
0.350286
0.349778
0.349287
0.348802
0.348491
0.34821
0.347803
0.347441
0.346974
0.346579
0.346082
0.345604
0.3452
0.344396
0.344114
0.343907
0.343474
0.343155
0.342723
0.342399
0.341878
0.341429
0.341091
0.340045
0.339797
0.339514
0.339215
0.338864
0.338511
0.338112
0.337722
0.337313
0.336901
0.335705
0.335479
0.335125
0.334951
0.334587
0.334311
0.333847
0.333578
0.333184
0.332708
0.331324
0.331124
0.330854
0.330659
0.330312
0.330059
0.329677
0.329389
0.329023
0.328631
0.326956
0.326784
0.326586
0.326366
0.326057
0.325835
0.325523
0.325211
0.324872
0.324547
0.322605
0.322459
0.322288
0.322094
0.321911
0.321616
0.321332
0.321047
0.320733
0.320435
0.318272
0.318152
0.318061
0.317845
0.317678
0.317407
0.317203
0.316897
0.31661
0.316392
0.313961
0.313866
0.313846
0.313605
0.313473
0.31323
0.313094
0.312765
0.312504
0.312351
0.309723
0.309655
0.309558
0.309445
0.30928
0.309115
0.308903
0.308699
0.30847
0.308242
0.305508
0.305463
0.305295
0.3053
0.305119
0.305023
0.304745
0.304657
0.304445
0.304152
0.301272
0.30125
0.301158
0.301138
0.300975
0.300903
0.3007
0.300589
0.300401
0.300186
0.149519
0.148419
0.147331
0.146255
0.145158
0.144142
0.14308
0.142043
0.141007
0.140001
0.307985
0.444583
0.439901
0.43517
0.430421
0.425681
0.420895
0.416114
0.411331
0.406567
0.307133
0.443727
0.439091
0.434378
0.429651
0.424864
0.420094
0.415334
0.410609
0.405888
0.305375
0.442022
0.437383
0.432702
0.428022
0.423339
0.418598
0.413882
0.409167
0.40444
0.302798
0.439454
0.434857
0.430285
0.425677
0.420985
0.416349
0.411702
0.406995
0.402297
0.299419
0.436065
0.431607
0.427102
0.422516
0.417963
0.413385
0.408757
0.404128
0.399553
0.295306
0.431959
0.427598
0.423196
0.418695
0.414169
0.409687
0.405138
0.400651
0.396163
0.290447
0.427127
0.422816
0.418526
0.414132
0.409773
0.405397
0.400947
0.396553
0.392103
0.285011
0.421543
0.417437
0.413197
0.408998
0.404758
0.400429
0.396161
0.391812
0.387536
0.278989
0.415415
0.411434
0.407331
0.403269
0.399102
0.3949
0.39076
0.386603
0.382437
0.272419
0.408719
0.404816
0.400857
0.396946
0.392979
0.388912
0.384914
0.380899
0.376797
0.265443
0.401416
0.397697
0.393971
0.390194
0.386324
0.38248
0.378608
0.374667
0.370717
0.25811
0.393654
0.390187
0.386653
0.382961
0.379304
0.375636
0.371843
0.368032
0.364304
0.250515
0.385614
0.382289
0.378932
0.375406
0.371865
0.368362
0.364725
0.361144
0.357543
0.242652
0.377246
0.374019
0.370839
0.367486
0.364163
0.360828
0.357354
0.353957
0.350439
0.234717
0.368487
0.365563
0.362445
0.359383
0.356232
0.352957
0.349757
0.346418
0.343163
0.226659
0.359635
0.356852
0.353915
0.351032
0.348012
0.344909
0.341878
0.338781
0.335655
0.218511
0.35062
0.347938
0.34518
0.342477
0.339673
0.336741
0.333881
0.330982
0.327943
0.2104
0.341364
0.338911
0.336413
0.333843
0.331175
0.328492
0.325761
0.322953
0.320112
0.202344
0.33204
0.329849
0.327572
0.325098
0.322639
0.320164
0.317523
0.314842
0.312239
0.194409
0.32282
0.320755
0.318654
0.316351
0.314028
0.311721
0.309244
0.3068
0.304316
0.18655
0.313612
0.31164
0.309708
0.307574
0.305448
0.303305
0.30099
0.298744
0.296343
0.178926
0.304321
0.302644
0.300752
0.298905
0.29694
0.294838
0.292798
0.290592
0.288457
0.171454
0.295237
0.293668
0.291938
0.29025
0.288415
0.286469
0.284581
0.282598
0.280569
0.16413
0.286256
0.284768
0.283193
0.281657
0.279998
0.278203
0.276464
0.274669
0.272716
0.157046
0.277276
0.275992
0.274635
0.273196
0.271661
0.27008
0.268438
0.266718
0.264948
0.150186
0.268447
0.267375
0.26621
0.264843
0.263469
0.262073
0.260502
0.258876
0.257307
0.143585
0.259904
0.258915
0.257885
0.256655
0.255397
0.254132
0.252694
0.251264
0.249781
0.137173
0.251538
0.250612
0.249709
0.248609
0.247496
0.246358
0.245048
0.243785
0.242365
0.13107
0.243245
0.242556
0.241663
0.240796
0.239803
0.23868
0.237597
0.23635
0.235151
0.125189
0.235266
0.23464
0.233865
0.233113
0.232223
0.231216
0.230247
0.229173
0.228045
0.119502
0.227491
0.226915
0.22625
0.225606
0.224837
0.223942
0.223081
0.222157
0.221081
0.114077
0.21982
0.219397
0.21889
0.218302
0.217627
0.21689
0.216088
0.215213
0.214282
0.108886
0.212367
0.212094
0.211731
0.211185
0.210616
0.210021
0.209263
0.208446
0.207665
0.103945
0.205233
0.205001
0.204727
0.204275
0.203791
0.203285
0.202621
0.201947
0.201218
0.0504456
0.0987099
0.0971761
0.0957197
0.0942209
0.0927804
0.0913763
0.0899377
0.0885727
0.0871775
0.0413069
0.220175
0.220177
0.220177
0.220175
0.220177
0.220177
0.220175
0.220177
0.220177
0.220169
0.220182
0.220182
0.220163
0.220182
0.0386296
0.168797
0.168799
0.168799
0.168797
0.168799
0.168799
0.168797
0.168799
0.168799
0.16879
0.168806
0.168806
0.168783
0.168806
0.0386291
0.168795
0.168796
0.168796
0.168794
0.168796
0.168796
0.168794
0.168796
0.168796
0.168787
0.168804
0.168804
0.16878
0.168804
0.0386285
0.168792
0.168794
0.168794
0.168792
0.168794
0.168794
0.168792
0.168794
0.168794
0.168785
0.168801
0.168801
0.168778
0.168801
0.038628
0.16879
0.168792
0.168792
0.16879
0.168792
0.168792
0.16879
0.168792
0.168792
0.168783
0.168799
0.168799
0.168776
0.168799
0.0386276
0.168788
0.16879
0.16879
0.168788
0.16879
0.16879
0.168788
0.16879
0.16879
0.168781
0.168797
0.168797
0.168774
0.168797
0.0386272
0.168787
0.168788
0.168788
0.168786
0.168788
0.168788
0.168786
0.168788
0.168788
0.168779
0.168795
0.168795
0.168772
0.168795
0.0386268
0.168785
0.168787
0.168787
0.168784
0.168787
0.168787
0.168784
0.168787
0.168787
0.168777
0.168794
0.168794
0.16877
0.168794
0.0386264
0.168783
0.168785
0.168785
0.168783
0.168785
0.168785
0.168783
0.168785
0.168785
0.168776
0.168792
0.168792
0.168769
0.168792
0.0428885
0.225358
0.225359
0.225359
0.225357
0.225359
0.225359
0.225357
0.225359
0.225359
0.225352
0.225365
0.225365
0.225346
0.225365
)
;

boundaryField
{
    inlet_one
    {
        type            zeroGradient;
    }
    inlet_two
    {
        type            zeroGradient;
    }
    outlet
    {
        type            zeroGradient;
    }
    walls
    {
        type            zeroGradient;
    }
    front
    {
        type            wedge;
    }
    back
    {
        type            wedge;
    }
}


// ************************************************************************* //
