/*--------------------------------*- C++ -*----------------------------------*\
| =========                 |                                                 |
| \\      /  F ield         | OpenFOAM: The Open Source CFD Toolbox           |
|  \\    /   O peration     | Version:  plus                                  |
|   \\  /    A nd           | Web:      www.OpenFOAM.com                      |
|    \\/     M anipulation  |                                                 |
\*---------------------------------------------------------------------------*/
FoamFile
{
    version     2.0;
    format      ascii;
    class       volScalarField;
    location    "0";
    object      cellVolume;
}
// * * * * * * * * * * * * * * * * * * * * * * * * * * * * * * * * * * * * * //

dimensions      [0 3 0 0 0 0 0];


internalField   nonuniform List<scalar> 
2650
(
2.65163e-12
2.51026e-12
2.37274e-12
2.2391e-12
2.10933e-12
1.98344e-12
1.86142e-12
1.74328e-12
1.629e-12
1.51861e-12
1.41209e-12
1.30944e-12
1.21066e-12
1.11576e-12
1.02473e-12
7.95489e-12
7.53075e-12
7.11822e-12
6.71729e-12
6.328e-12
5.95031e-12
5.58426e-12
5.22985e-12
4.88703e-12
4.55583e-12
4.23625e-12
3.9283e-12
3.63197e-12
3.34726e-12
3.07417e-12
1.32582e-11
1.25512e-11
1.18637e-11
1.11955e-11
1.05466e-11
9.91717e-12
9.30708e-12
8.71636e-12
8.14502e-12
7.59305e-12
7.06044e-12
6.5472e-12
6.05331e-12
5.57878e-12
5.12364e-12
1.85614e-11
1.75718e-11
1.66092e-11
1.56737e-11
1.47653e-11
1.38841e-11
1.303e-11
1.22029e-11
1.14031e-11
1.06303e-11
9.88457e-12
9.16603e-12
8.47461e-12
7.81027e-12
7.17305e-12
2.38648e-11
2.25924e-11
2.13549e-11
2.01519e-11
1.89837e-11
1.78508e-11
1.67528e-11
1.56895e-11
1.4661e-11
1.36675e-11
1.27088e-11
1.17849e-11
1.08959e-11
1.00418e-11
9.22253e-12
2.91677e-11
2.76125e-11
2.60999e-11
2.463e-11
2.32026e-11
2.18178e-11
2.04756e-11
1.91762e-11
1.7919e-11
1.67043e-11
1.55327e-11
1.44038e-11
1.33173e-11
1.22733e-11
1.12719e-11
3.4471e-11
3.2633e-11
3.08454e-11
2.91088e-11
2.74218e-11
2.57847e-11
2.41985e-11
2.26626e-11
2.11772e-11
1.9742e-11
1.83572e-11
1.70228e-11
1.57389e-11
1.45049e-11
1.33213e-11
3.9775e-11
3.76535e-11
3.55908e-11
3.35863e-11
3.16399e-11
2.97515e-11
2.79213e-11
2.61492e-11
2.44352e-11
2.27792e-11
2.11814e-11
1.96417e-11
1.81595e-11
1.6736e-11
1.53711e-11
4.50783e-11
4.26748e-11
4.03363e-11
3.80645e-11
3.58585e-11
3.37184e-11
3.16442e-11
2.96357e-11
2.76932e-11
2.58165e-11
2.40056e-11
2.226e-11
2.05808e-11
1.89681e-11
1.74206e-11
5.03806e-11
4.76945e-11
4.50818e-11
4.25427e-11
4.00772e-11
3.76853e-11
3.5367e-11
3.31215e-11
3.09504e-11
2.88537e-11
2.68298e-11
2.48795e-11
2.30028e-11
2.11996e-11
1.94695e-11
5.56839e-11
5.27161e-11
4.98283e-11
4.70208e-11
4.42958e-11
4.16522e-11
3.90899e-11
3.66089e-11
3.42092e-11
3.18909e-11
2.96532e-11
2.74976e-11
2.54241e-11
2.34305e-11
2.15189e-11
6.09871e-11
5.77354e-11
5.45727e-11
5.1499e-11
4.85155e-11
4.56201e-11
4.28127e-11
4.00954e-11
3.74673e-11
3.49282e-11
3.24782e-11
3.01173e-11
2.78446e-11
2.56619e-11
2.35691e-11
6.62917e-11
6.27558e-11
5.93181e-11
5.59773e-11
5.27331e-11
4.95859e-11
4.65356e-11
4.3582e-11
4.07253e-11
3.79645e-11
3.53014e-11
3.27362e-11
3.02668e-11
2.78943e-11
2.56177e-11
7.15936e-11
6.77763e-11
6.40648e-11
6.04566e-11
5.69517e-11
5.35527e-11
5.02584e-11
4.70686e-11
4.39834e-11
4.10027e-11
3.81265e-11
3.5354e-11
3.26871e-11
3.01258e-11
2.76681e-11
7.68984e-11
7.27983e-11
6.8809e-11
6.49334e-11
6.11704e-11
5.75196e-11
5.39812e-11
5.05551e-11
4.72413e-11
4.40398e-11
4.09506e-11
3.79738e-11
3.51094e-11
3.23563e-11
2.97166e-11
8.22001e-11
7.78172e-11
7.35544e-11
6.94117e-11
6.53891e-11
6.14865e-11
5.7704e-11
5.40416e-11
5.04993e-11
4.7077e-11
4.37748e-11
4.05928e-11
3.75308e-11
3.45889e-11
3.17671e-11
8.75033e-11
8.28376e-11
7.82997e-11
7.38898e-11
6.96078e-11
6.54534e-11
6.14268e-11
5.75282e-11
5.37574e-11
5.01144e-11
4.65978e-11
4.32105e-11
3.9951e-11
3.68192e-11
3.38154e-11
9.28083e-11
8.78599e-11
8.3047e-11
7.8368e-11
7.38264e-11
6.94203e-11
6.51497e-11
6.10148e-11
5.70139e-11
5.31501e-11
4.94234e-11
4.58307e-11
4.23735e-11
3.9052e-11
3.5866e-11
9.81096e-11
9.28786e-11
8.77908e-11
8.28462e-11
7.8045e-11
7.33871e-11
6.88725e-11
6.45013e-11
6.02734e-11
5.61888e-11
5.22476e-11
4.84496e-11
4.47948e-11
4.12822e-11
3.79142e-11
1.03413e-10
9.7899e-11
9.25362e-11
8.73263e-11
8.22655e-11
7.73538e-11
7.25954e-11
6.7988e-11
6.35315e-11
5.92261e-11
5.50718e-11
5.1067e-11
4.72148e-11
4.3515e-11
3.99636e-11
4.20243e-13
4.20145e-13
4.20243e-13
4.20243e-13
4.20243e-13
4.20145e-13
4.20243e-13
4.20243e-13
4.20145e-13
4.20243e-13
4.20243e-13
4.20243e-13
4.20145e-13
4.20243e-13
4.20243e-13
4.20145e-13
4.20243e-13
4.20243e-13
4.20243e-13
4.20145e-13
4.20243e-13
4.20243e-13
4.20145e-13
4.20243e-13
4.20243e-13
4.20243e-13
4.20145e-13
4.20243e-13
4.20243e-13
4.20145e-13
4.20243e-13
4.20243e-13
4.20243e-13
4.20145e-13
4.20243e-13
1.26073e-12
1.26043e-12
1.26073e-12
1.26073e-12
1.26073e-12
1.26043e-12
1.26073e-12
1.26073e-12
1.26043e-12
1.26073e-12
1.26073e-12
1.26073e-12
1.26043e-12
1.26073e-12
1.26073e-12
1.26043e-12
1.26073e-12
1.26073e-12
1.26073e-12
1.26043e-12
1.26073e-12
1.26073e-12
1.26043e-12
1.26073e-12
1.26073e-12
1.26073e-12
1.26043e-12
1.26073e-12
1.26073e-12
1.26043e-12
1.26073e-12
1.26073e-12
1.26073e-12
1.26043e-12
1.26073e-12
2.10122e-12
2.10073e-12
2.10122e-12
2.10122e-12
2.10122e-12
2.10073e-12
2.10122e-12
2.10122e-12
2.10073e-12
2.10122e-12
2.10122e-12
2.10122e-12
2.10073e-12
2.10122e-12
2.10122e-12
2.10073e-12
2.10122e-12
2.10122e-12
2.10122e-12
2.10073e-12
2.10122e-12
2.10122e-12
2.10073e-12
2.10122e-12
2.10122e-12
2.10122e-12
2.10073e-12
2.10122e-12
2.10122e-12
2.10073e-12
2.10122e-12
2.10122e-12
2.10122e-12
2.10073e-12
2.10122e-12
2.94169e-12
2.94101e-12
2.94169e-12
2.94169e-12
2.94169e-12
2.94101e-12
2.94169e-12
2.94169e-12
2.94101e-12
2.94169e-12
2.94169e-12
2.94169e-12
2.94101e-12
2.94169e-12
2.94169e-12
2.94101e-12
2.94169e-12
2.94169e-12
2.94169e-12
2.94101e-12
2.94169e-12
2.94169e-12
2.94101e-12
2.94169e-12
2.94169e-12
2.94169e-12
2.94101e-12
2.94169e-12
2.94169e-12
2.94101e-12
2.94169e-12
2.94169e-12
2.94169e-12
2.94101e-12
2.94169e-12
3.78218e-12
3.7813e-12
3.78218e-12
3.78218e-12
3.78218e-12
3.7813e-12
3.78218e-12
3.78218e-12
3.7813e-12
3.78218e-12
3.78218e-12
3.78218e-12
3.7813e-12
3.78218e-12
3.78218e-12
3.7813e-12
3.78218e-12
3.78218e-12
3.78218e-12
3.7813e-12
3.78218e-12
3.78218e-12
3.7813e-12
3.78218e-12
3.78218e-12
3.78218e-12
3.7813e-12
3.78218e-12
3.78218e-12
3.7813e-12
3.78218e-12
3.78218e-12
3.78218e-12
3.7813e-12
3.78218e-12
4.62266e-12
4.62158e-12
4.62266e-12
4.62266e-12
4.62266e-12
4.62158e-12
4.62266e-12
4.62266e-12
4.62158e-12
4.62266e-12
4.62266e-12
4.62266e-12
4.62158e-12
4.62266e-12
4.62266e-12
4.62158e-12
4.62266e-12
4.62266e-12
4.62266e-12
4.62158e-12
4.62266e-12
4.62266e-12
4.62158e-12
4.62266e-12
4.62266e-12
4.62266e-12
4.62158e-12
4.62266e-12
4.62266e-12
4.62158e-12
4.62266e-12
4.62266e-12
4.62266e-12
4.62158e-12
4.62266e-12
5.46315e-12
5.46188e-12
5.46315e-12
5.46315e-12
5.46315e-12
5.46188e-12
5.46315e-12
5.46315e-12
5.46188e-12
5.46315e-12
5.46315e-12
5.46315e-12
5.46188e-12
5.46315e-12
5.46315e-12
5.46188e-12
5.46315e-12
5.46315e-12
5.46315e-12
5.46188e-12
5.46315e-12
5.46315e-12
5.46188e-12
5.46315e-12
5.46315e-12
5.46315e-12
5.46188e-12
5.46315e-12
5.46315e-12
5.46188e-12
5.46315e-12
5.46315e-12
5.46315e-12
5.46188e-12
5.46315e-12
6.30377e-12
6.3023e-12
6.30377e-12
6.30377e-12
6.30377e-12
6.3023e-12
6.30377e-12
6.30377e-12
6.3023e-12
6.30377e-12
6.30377e-12
6.30377e-12
6.3023e-12
6.30377e-12
6.30377e-12
6.3023e-12
6.30377e-12
6.30377e-12
6.30377e-12
6.3023e-12
6.30377e-12
6.30377e-12
6.3023e-12
6.30377e-12
6.30377e-12
6.30377e-12
6.3023e-12
6.30377e-12
6.30377e-12
6.3023e-12
6.30377e-12
6.30377e-12
6.30377e-12
6.3023e-12
6.30377e-12
7.14427e-12
7.1426e-12
7.14427e-12
7.14427e-12
7.14427e-12
7.1426e-12
7.14427e-12
7.14427e-12
7.1426e-12
7.14427e-12
7.14427e-12
7.14427e-12
7.1426e-12
7.14427e-12
7.14427e-12
7.1426e-12
7.14427e-12
7.14427e-12
7.14427e-12
7.1426e-12
7.14427e-12
7.14427e-12
7.1426e-12
7.14427e-12
7.14427e-12
7.14427e-12
7.1426e-12
7.14427e-12
7.14427e-12
7.1426e-12
7.14427e-12
7.14427e-12
7.14427e-12
7.1426e-12
7.14427e-12
7.98424e-12
7.98238e-12
7.98424e-12
7.98424e-12
7.98424e-12
7.98238e-12
7.98424e-12
7.98424e-12
7.98238e-12
7.98424e-12
7.98424e-12
7.98424e-12
7.98238e-12
7.98424e-12
7.98424e-12
7.98238e-12
7.98424e-12
7.98424e-12
7.98424e-12
7.98238e-12
7.98424e-12
7.98424e-12
7.98238e-12
7.98424e-12
7.98424e-12
7.98424e-12
7.98238e-12
7.98424e-12
7.98424e-12
7.98238e-12
7.98424e-12
7.98424e-12
7.98424e-12
7.98238e-12
7.98424e-12
8.82527e-12
8.82321e-12
8.82527e-12
8.82527e-12
8.82527e-12
8.82321e-12
8.82527e-12
8.82527e-12
8.82321e-12
8.82527e-12
8.82527e-12
8.82527e-12
8.82321e-12
8.82527e-12
8.82527e-12
8.82321e-12
8.82527e-12
8.82527e-12
8.82527e-12
8.82321e-12
8.82527e-12
8.82527e-12
8.82321e-12
8.82527e-12
8.82527e-12
8.82527e-12
8.82321e-12
8.82527e-12
8.82527e-12
8.82321e-12
8.82527e-12
8.82527e-12
8.82527e-12
8.82321e-12
8.82527e-12
9.66577e-12
9.66352e-12
9.66577e-12
9.66577e-12
9.66577e-12
9.66352e-12
9.66577e-12
9.66577e-12
9.66352e-12
9.66577e-12
9.66577e-12
9.66577e-12
9.66352e-12
9.66577e-12
9.66577e-12
9.66352e-12
9.66577e-12
9.66577e-12
9.66577e-12
9.66352e-12
9.66577e-12
9.66577e-12
9.66352e-12
9.66577e-12
9.66577e-12
9.66577e-12
9.66352e-12
9.66577e-12
9.66577e-12
9.66352e-12
9.66577e-12
9.66577e-12
9.66577e-12
9.66352e-12
9.66577e-12
1.05056e-11
1.05031e-11
1.05056e-11
1.05056e-11
1.05056e-11
1.05031e-11
1.05056e-11
1.05056e-11
1.05031e-11
1.05056e-11
1.05056e-11
1.05056e-11
1.05031e-11
1.05056e-11
1.05056e-11
1.05031e-11
1.05056e-11
1.05056e-11
1.05056e-11
1.05031e-11
1.05056e-11
1.05056e-11
1.05031e-11
1.05056e-11
1.05056e-11
1.05056e-11
1.05031e-11
1.05056e-11
1.05056e-11
1.05031e-11
1.05056e-11
1.05056e-11
1.05056e-11
1.05031e-11
1.05056e-11
1.13468e-11
1.13441e-11
1.13468e-11
1.13468e-11
1.13468e-11
1.13441e-11
1.13468e-11
1.13468e-11
1.13441e-11
1.13468e-11
1.13468e-11
1.13468e-11
1.13441e-11
1.13468e-11
1.13468e-11
1.13441e-11
1.13468e-11
1.13468e-11
1.13468e-11
1.13441e-11
1.13468e-11
1.13468e-11
1.13441e-11
1.13468e-11
1.13468e-11
1.13468e-11
1.13441e-11
1.13468e-11
1.13468e-11
1.13441e-11
1.13468e-11
1.13468e-11
1.13468e-11
1.13441e-11
1.13468e-11
1.21873e-11
1.21844e-11
1.21873e-11
1.21873e-11
1.21873e-11
1.21844e-11
1.21873e-11
1.21873e-11
1.21844e-11
1.21873e-11
1.21873e-11
1.21873e-11
1.21844e-11
1.21873e-11
1.21873e-11
1.21844e-11
1.21873e-11
1.21873e-11
1.21873e-11
1.21844e-11
1.21873e-11
1.21873e-11
1.21844e-11
1.21873e-11
1.21873e-11
1.21873e-11
1.21844e-11
1.21873e-11
1.21873e-11
1.21844e-11
1.21873e-11
1.21873e-11
1.21873e-11
1.21844e-11
1.21873e-11
1.30278e-11
1.30248e-11
1.30278e-11
1.30278e-11
1.30278e-11
1.30248e-11
1.30278e-11
1.30278e-11
1.30248e-11
1.30278e-11
1.30278e-11
1.30278e-11
1.30248e-11
1.30278e-11
1.30278e-11
1.30248e-11
1.30278e-11
1.30278e-11
1.30278e-11
1.30248e-11
1.30278e-11
1.30278e-11
1.30248e-11
1.30278e-11
1.30278e-11
1.30278e-11
1.30248e-11
1.30278e-11
1.30278e-11
1.30248e-11
1.30278e-11
1.30278e-11
1.30278e-11
1.30248e-11
1.30278e-11
1.38674e-11
1.38641e-11
1.38674e-11
1.38674e-11
1.38674e-11
1.38641e-11
1.38674e-11
1.38674e-11
1.38641e-11
1.38674e-11
1.38674e-11
1.38674e-11
1.38641e-11
1.38674e-11
1.38674e-11
1.38641e-11
1.38674e-11
1.38674e-11
1.38674e-11
1.38641e-11
1.38674e-11
1.38674e-11
1.38641e-11
1.38674e-11
1.38674e-11
1.38674e-11
1.38641e-11
1.38674e-11
1.38674e-11
1.38641e-11
1.38674e-11
1.38674e-11
1.38674e-11
1.38641e-11
1.38674e-11
1.47087e-11
1.47053e-11
1.47087e-11
1.47087e-11
1.47087e-11
1.47053e-11
1.47087e-11
1.47087e-11
1.47053e-11
1.47087e-11
1.47087e-11
1.47087e-11
1.47053e-11
1.47087e-11
1.47087e-11
1.47053e-11
1.47087e-11
1.47087e-11
1.47087e-11
1.47053e-11
1.47087e-11
1.47087e-11
1.47053e-11
1.47087e-11
1.47087e-11
1.47087e-11
1.47053e-11
1.47087e-11
1.47087e-11
1.47053e-11
1.47087e-11
1.47087e-11
1.47087e-11
1.47053e-11
1.47087e-11
1.55492e-11
1.55456e-11
1.55492e-11
1.55492e-11
1.55492e-11
1.55456e-11
1.55492e-11
1.55492e-11
1.55456e-11
1.55492e-11
1.55492e-11
1.55492e-11
1.55456e-11
1.55492e-11
1.55492e-11
1.55456e-11
1.55492e-11
1.55492e-11
1.55492e-11
1.55456e-11
1.55492e-11
1.55492e-11
1.55456e-11
1.55492e-11
1.55492e-11
1.55492e-11
1.55456e-11
1.55492e-11
1.55492e-11
1.55456e-11
1.55492e-11
1.55492e-11
1.55492e-11
1.55456e-11
1.55492e-11
1.63887e-11
1.63848e-11
1.63887e-11
1.63887e-11
1.63887e-11
1.63848e-11
1.63887e-11
1.63887e-11
1.63848e-11
1.63887e-11
1.63887e-11
1.63887e-11
1.63848e-11
1.63887e-11
1.63887e-11
1.63848e-11
1.63887e-11
1.63887e-11
1.63887e-11
1.63848e-11
1.63887e-11
1.63887e-11
1.63848e-11
1.63887e-11
1.63887e-11
1.63887e-11
1.63848e-11
1.63887e-11
1.63887e-11
1.63848e-11
1.63887e-11
1.63887e-11
1.63887e-11
1.63848e-11
1.63887e-11
1.74464e-12
1.80278e-12
1.86188e-12
1.92194e-12
1.98295e-12
2.04491e-12
2.10783e-12
2.1717e-12
2.23652e-12
2.30229e-12
2.36902e-12
2.43671e-12
2.50534e-12
2.57493e-12
2.64548e-12
2.71697e-12
2.78941e-12
2.86281e-12
2.93717e-12
3.01248e-12
3.08874e-12
3.16595e-12
3.24413e-12
3.32325e-12
3.40332e-12
3.48435e-12
3.56632e-12
3.64927e-12
3.73315e-12
3.81799e-12
3.90378e-12
3.99053e-12
4.07824e-12
4.16689e-12
4.2565e-12
4.34706e-12
4.43858e-12
4.53102e-12
4.62444e-12
4.71881e-12
5.2339e-12
5.40836e-12
5.58567e-12
5.76581e-12
5.94885e-12
6.13476e-12
6.32348e-12
6.51508e-12
6.70956e-12
6.90691e-12
7.10709e-12
7.31011e-12
7.51603e-12
7.72482e-12
7.93642e-12
8.1509e-12
8.36826e-12
8.58848e-12
8.81154e-12
9.03744e-12
9.26624e-12
9.49788e-12
9.73234e-12
9.9697e-12
1.02099e-11
1.0453e-11
1.0699e-11
1.09478e-11
1.11994e-11
1.1454e-11
1.17114e-11
1.19716e-11
1.22347e-11
1.25007e-11
1.27695e-11
1.30411e-11
1.33157e-11
1.35931e-11
1.38734e-11
1.41565e-11
8.7232e-12
9.01391e-12
9.30942e-12
9.60972e-12
9.91476e-12
1.02246e-11
1.05392e-11
1.08585e-11
1.11826e-11
1.15114e-11
1.18451e-11
1.21835e-11
1.25267e-11
1.28747e-11
1.32274e-11
1.35849e-11
1.39471e-11
1.4314e-11
1.46858e-11
1.50624e-11
1.54437e-11
1.58298e-11
1.62206e-11
1.66162e-11
1.70166e-11
1.74217e-11
1.78316e-11
1.82463e-11
1.86658e-11
1.909e-11
1.95189e-11
1.99526e-11
2.03912e-11
2.08344e-11
2.12824e-11
2.17353e-11
2.21929e-11
2.26551e-11
2.31222e-11
2.35941e-11
1.22124e-11
1.26195e-11
1.30332e-11
1.34536e-11
1.38807e-11
1.43144e-11
1.47548e-11
1.52019e-11
1.56556e-11
1.61161e-11
1.65832e-11
1.7057e-11
1.75374e-11
1.80245e-11
1.85183e-11
1.90188e-11
1.9526e-11
2.00397e-11
2.05602e-11
2.10874e-11
2.16212e-11
2.21617e-11
2.27088e-11
2.32627e-11
2.38233e-11
2.43904e-11
2.49643e-11
2.55448e-11
2.6132e-11
2.67259e-11
2.73264e-11
2.79337e-11
2.85476e-11
2.91682e-11
2.97954e-11
3.04293e-11
3.10699e-11
3.17172e-11
3.23712e-11
3.30318e-11
1.57017e-11
1.6225e-11
1.6757e-11
1.72975e-11
1.78466e-11
1.84043e-11
1.89705e-11
1.95453e-11
2.01287e-11
2.07207e-11
2.13212e-11
2.19303e-11
2.25481e-11
2.31744e-11
2.38093e-11
2.44527e-11
2.51047e-11
2.57653e-11
2.64345e-11
2.71123e-11
2.77989e-11
2.84935e-11
2.91966e-11
2.99089e-11
3.06299e-11
3.13595e-11
3.20968e-11
3.28428e-11
3.35981e-11
3.43619e-11
3.51343e-11
3.59154e-11
3.67041e-11
3.75015e-11
3.83083e-11
3.91237e-11
3.99476e-11
4.07793e-11
4.16195e-11
4.24692e-11
1.9191e-11
1.98307e-11
2.04808e-11
2.11414e-11
2.18124e-11
2.2494e-11
2.31859e-11
2.38885e-11
2.46014e-11
2.53249e-11
2.60595e-11
2.68039e-11
2.75587e-11
2.8324e-11
2.90999e-11
2.98863e-11
3.06831e-11
3.14912e-11
3.2309e-11
3.31373e-11
3.39757e-11
3.48253e-11
3.56864e-11
3.65563e-11
3.74367e-11
3.83275e-11
3.92297e-11
4.01425e-11
4.10647e-11
4.19984e-11
4.29417e-11
4.38954e-11
4.48605e-11
4.58362e-11
4.68214e-11
4.7817e-11
4.88241e-11
4.98417e-11
5.08699e-11
5.19074e-11
2.26799e-11
2.34361e-11
2.42046e-11
2.49849e-11
2.57783e-11
2.6584e-11
2.74017e-11
2.82322e-11
2.90753e-11
2.99299e-11
3.07969e-11
3.16772e-11
3.2569e-11
3.34741e-11
3.43915e-11
3.53205e-11
3.62628e-11
3.72165e-11
3.81826e-11
3.91621e-11
4.01539e-11
4.11572e-11
4.21728e-11
4.32019e-11
4.42423e-11
4.52962e-11
4.63624e-11
4.744e-11
4.85311e-11
4.96334e-11
5.07481e-11
5.18764e-11
5.3017e-11
5.41689e-11
5.53343e-11
5.65122e-11
5.77001e-11
5.89027e-11
6.01177e-11
6.13439e-11
2.61702e-11
2.7042e-11
2.79281e-11
2.88293e-11
2.9744e-11
3.06729e-11
3.16171e-11
3.25756e-11
3.35484e-11
3.45355e-11
3.55359e-11
3.65506e-11
3.75806e-11
3.86239e-11
3.96815e-11
4.07544e-11
4.18406e-11
4.29421e-11
4.40591e-11
4.51881e-11
4.63315e-11
4.74902e-11
4.86622e-11
4.98484e-11
5.105e-11
5.22648e-11
5.34939e-11
5.47385e-11
5.59974e-11
5.72706e-11
5.85581e-11
5.98587e-11
6.11735e-11
6.25039e-11
6.38473e-11
6.5205e-11
6.65784e-11
6.79646e-11
6.93666e-11
7.07843e-11
2.96586e-11
3.06466e-11
3.16518e-11
3.26733e-11
3.37109e-11
3.47648e-11
3.58349e-11
3.6919e-11
3.80193e-11
3.9138e-11
4.02729e-11
4.1424e-11
4.25914e-11
4.3775e-11
4.49736e-11
4.61884e-11
4.74206e-11
4.86677e-11
4.99311e-11
5.12119e-11
5.2509e-11
5.38209e-11
5.51491e-11
5.64948e-11
5.78567e-11
5.92348e-11
6.06292e-11
6.20398e-11
6.34637e-11
6.49038e-11
6.6363e-11
6.78383e-11
6.933e-11
7.08378e-11
7.23618e-11
7.39006e-11
7.54555e-11
7.70282e-11
7.86155e-11
8.0219e-11
3.31479e-11
3.42532e-11
3.53756e-11
3.65172e-11
3.76757e-11
3.88524e-11
4.00483e-11
4.12624e-11
4.24946e-11
4.37437e-11
4.50109e-11
4.62975e-11
4.76008e-11
4.89223e-11
5.02646e-11
5.16236e-11
5.29994e-11
5.43933e-11
5.58053e-11
5.72369e-11
5.86851e-11
6.01528e-11
6.16402e-11
6.31427e-11
6.46634e-11
6.62021e-11
6.77589e-11
6.93354e-11
7.093e-11
7.25427e-11
7.4172e-11
7.58194e-11
7.74865e-11
7.917e-11
8.08716e-11
8.25948e-11
8.43344e-11
8.60902e-11
8.78643e-11
8.96564e-11
3.66371e-11
3.78588e-11
3.91006e-11
4.03598e-11
4.16416e-11
4.29434e-11
4.4264e-11
4.56059e-11
4.69664e-11
4.83483e-11
4.97503e-11
5.11709e-11
5.26129e-11
5.40735e-11
5.55541e-11
5.70562e-11
5.85768e-11
6.0119e-11
6.16812e-11
6.32618e-11
6.48641e-11
6.64847e-11
6.81254e-11
6.97877e-11
7.147e-11
7.31724e-11
7.48931e-11
7.66338e-11
7.83963e-11
8.01769e-11
8.19797e-11
8.38023e-11
8.5643e-11
8.75056e-11
8.93864e-11
9.12871e-11
9.32098e-11
9.51504e-11
9.71131e-11
9.90959e-11
4.01277e-11
4.14644e-11
4.28231e-11
4.4205e-11
4.56075e-11
4.70333e-11
4.8481e-11
4.99493e-11
5.14409e-11
5.29529e-11
5.44869e-11
5.60427e-11
5.76221e-11
5.9225e-11
6.08466e-11
6.24901e-11
6.41573e-11
6.58446e-11
6.75538e-11
6.92868e-11
7.10417e-11
7.28184e-11
7.46153e-11
7.64342e-11
7.82748e-11
8.01374e-11
8.20259e-11
8.39342e-11
8.58626e-11
8.78148e-11
8.97872e-11
9.17815e-11
9.37975e-11
9.58374e-11
9.79014e-11
9.99831e-11
1.02087e-10
1.04215e-10
1.06362e-10
1.08532e-10
4.36141e-11
4.50686e-11
4.65468e-11
4.80489e-11
4.95749e-11
5.11231e-11
5.26952e-11
5.42927e-11
5.5914e-11
5.75575e-11
5.92249e-11
6.09177e-11
6.26326e-11
6.43715e-11
6.61358e-11
6.7924e-11
6.97363e-11
7.15721e-11
7.34318e-11
7.53136e-11
7.72172e-11
7.91466e-11
8.11016e-11
8.30805e-11
8.50834e-11
8.711e-11
8.91586e-11
9.12308e-11
9.33289e-11
9.5451e-11
9.75968e-11
9.97645e-11
1.01956e-10
1.04171e-10
1.0641e-10
1.08675e-10
1.10964e-10
1.13277e-10
1.15613e-10
1.17974e-10
4.71064e-11
4.86756e-11
5.02705e-11
5.18928e-11
5.35392e-11
5.52113e-11
5.69108e-11
5.86342e-11
6.03836e-11
6.21621e-11
6.39646e-11
6.57911e-11
6.76452e-11
6.95232e-11
7.14267e-11
7.3358e-11
7.53132e-11
7.72938e-11
7.93024e-11
8.13366e-11
8.33965e-11
8.54826e-11
8.7594e-11
8.97291e-11
9.18902e-11
9.40789e-11
9.62911e-11
9.85292e-11
1.00795e-10
1.03085e-10
1.054e-10
1.07746e-10
1.10115e-10
1.12507e-10
1.14928e-10
1.17371e-10
1.19841e-10
1.22339e-10
1.2486e-10
1.27407e-10
5.05941e-11
5.22812e-11
5.3996e-11
5.57368e-11
5.75069e-11
5.93028e-11
6.11264e-11
6.29794e-11
6.48602e-11
6.67667e-11
6.87028e-11
7.06665e-11
7.26539e-11
7.4673e-11
7.67197e-11
7.8792e-11
8.08939e-11
8.30236e-11
8.51788e-11
8.73592e-11
8.95719e-11
9.18124e-11
9.40779e-11
9.63733e-11
9.86968e-11
1.01045e-10
1.03421e-10
1.05828e-10
1.08259e-10
1.10721e-10
1.1321e-10
1.15724e-10
1.18269e-10
1.20838e-10
1.23435e-10
1.26063e-10
1.28718e-10
1.31398e-10
1.34109e-10
1.36847e-10
5.40851e-11
5.58867e-11
5.77181e-11
5.95789e-11
6.1471e-11
6.33945e-11
6.5344e-11
6.73229e-11
6.93313e-11
7.13714e-11
7.34409e-11
7.5538e-11
7.76667e-11
7.98228e-11
8.20084e-11
8.42258e-11
8.64728e-11
8.87471e-11
9.10507e-11
9.33863e-11
9.57517e-11
9.81467e-11
1.00568e-10
1.0302e-10
1.05501e-10
1.08014e-10
1.10559e-10
1.13129e-10
1.15728e-10
1.18357e-10
1.21017e-10
1.23708e-10
1.26425e-10
1.29175e-10
1.31951e-10
1.3476e-10
1.37598e-10
1.40463e-10
1.43358e-10
1.46282e-10
5.75706e-11
5.94904e-11
6.14418e-11
6.34247e-11
6.54369e-11
6.74804e-11
6.95575e-11
7.16663e-11
7.38066e-11
7.5976e-11
7.81769e-11
8.04114e-11
8.26774e-11
8.49749e-11
8.73039e-11
8.96622e-11
9.20517e-11
9.44725e-11
9.69249e-11
9.94113e-11
1.01927e-10
1.04474e-10
1.07054e-10
1.09666e-10
1.1231e-10
1.14983e-10
1.17687e-10
1.20425e-10
1.23194e-10
1.25995e-10
1.28825e-10
1.31686e-10
1.34582e-10
1.37509e-10
1.40467e-10
1.43454e-10
1.46472e-10
1.49525e-10
1.5261e-10
1.55722e-10
6.10637e-11
6.30979e-11
6.51655e-11
6.72685e-11
6.9405e-11
7.15725e-11
7.37732e-11
7.60096e-11
7.82772e-11
8.05782e-11
8.29149e-11
8.52849e-11
8.76858e-11
9.01201e-11
9.25902e-11
9.50911e-11
9.76254e-11
1.00198e-10
1.02804e-10
1.05439e-10
1.08107e-10
1.10811e-10
1.13548e-10
1.16315e-10
1.19117e-10
1.21954e-10
1.24822e-10
1.27723e-10
1.30661e-10
1.33631e-10
1.36633e-10
1.39667e-10
1.42738e-10
1.45839e-10
1.48974e-10
1.52145e-10
1.5535e-10
1.58584e-10
1.61852e-10
1.6516e-10
6.45509e-11
6.67035e-11
6.88914e-11
7.11124e-11
7.33686e-11
7.56624e-11
7.79913e-11
8.03531e-11
8.27528e-11
8.51876e-11
8.76551e-11
9.01556e-11
9.26964e-11
9.52724e-11
9.7881e-11
1.00527e-10
1.03209e-10
1.05924e-10
1.08674e-10
1.11461e-10
1.14285e-10
1.1714e-10
1.2003e-10
1.22959e-10
1.25923e-10
1.2892e-10
1.31955e-10
1.35025e-10
1.38127e-10
1.41264e-10
1.4444e-10
1.47651e-10
1.50895e-10
1.54176e-10
1.57493e-10
1.60842e-10
1.64223e-10
1.67646e-10
1.71104e-10
1.74594e-10
6.80402e-11
7.03091e-11
7.2613e-11
7.49539e-11
7.73344e-11
7.97521e-11
8.22046e-11
8.46942e-11
8.72234e-11
8.97898e-11
9.23907e-11
9.50316e-11
9.77097e-11
1.00425e-10
1.03175e-10
1.05962e-10
1.08788e-10
1.11653e-10
1.14551e-10
1.17486e-10
1.20462e-10
1.23475e-10
1.26521e-10
1.29605e-10
1.32727e-10
1.35888e-10
1.39087e-10
1.4232e-10
1.4559e-10
1.489e-10
1.52248e-10
1.55629e-10
1.59048e-10
1.62507e-10
1.66003e-10
1.69533e-10
1.73104e-10
1.76712e-10
1.80357e-10
1.84035e-10
5.93232e-11
5.6903e-11
5.44172e-11
5.18657e-11
4.92373e-11
4.65453e-11
4.37891e-11
4.09683e-11
3.80772e-11
3.51212e-11
5.93232e-11
5.6903e-11
5.44104e-11
5.18528e-11
4.92372e-11
4.65567e-11
4.37944e-11
4.09683e-11
3.80772e-11
3.51171e-11
5.93232e-11
5.6903e-11
5.44172e-11
5.18657e-11
4.92373e-11
4.65453e-11
4.37891e-11
4.09683e-11
3.80772e-11
3.51212e-11
5.93309e-11
5.68958e-11
5.44103e-11
5.18593e-11
4.92372e-11
4.65511e-11
4.37943e-11
4.09733e-11
3.80728e-11
3.5117e-11
5.93232e-11
5.6903e-11
5.44172e-11
5.18657e-11
4.92373e-11
4.65453e-11
4.37891e-11
4.09683e-11
3.80772e-11
3.51212e-11
5.93232e-11
5.6903e-11
5.44104e-11
5.18528e-11
4.92372e-11
4.65567e-11
4.37944e-11
4.09683e-11
3.80772e-11
3.51171e-11
5.93232e-11
5.6903e-11
5.44172e-11
5.18657e-11
4.92373e-11
4.65453e-11
4.37891e-11
4.09683e-11
3.80772e-11
3.51212e-11
5.93232e-11
5.6903e-11
5.44172e-11
5.18657e-11
4.92373e-11
4.65453e-11
4.37891e-11
4.09683e-11
3.80772e-11
3.51212e-11
5.93232e-11
5.6903e-11
5.44104e-11
5.18528e-11
4.92372e-11
4.65567e-11
4.37944e-11
4.09683e-11
3.80772e-11
3.51171e-11
5.93232e-11
5.6903e-11
5.44172e-11
5.18657e-11
4.92373e-11
4.65453e-11
4.37891e-11
4.09683e-11
3.80772e-11
3.51212e-11
5.93309e-11
5.68958e-11
5.44103e-11
5.18593e-11
4.92372e-11
4.65511e-11
4.37943e-11
4.09733e-11
3.80728e-11
3.5117e-11
5.93232e-11
5.6903e-11
5.44172e-11
5.18657e-11
4.92373e-11
4.65453e-11
4.37891e-11
4.09683e-11
3.80772e-11
3.51212e-11
5.93232e-11
5.6903e-11
5.44104e-11
5.18528e-11
4.92372e-11
4.65567e-11
4.37944e-11
4.09683e-11
3.80772e-11
3.51171e-11
5.93232e-11
5.6903e-11
5.44172e-11
5.18657e-11
4.92373e-11
4.65453e-11
4.37891e-11
4.09683e-11
3.80772e-11
3.51212e-11
5.93232e-11
5.6903e-11
5.44172e-11
5.18657e-11
4.92373e-11
4.65453e-11
4.37891e-11
4.09683e-11
3.80772e-11
3.51212e-11
5.93232e-11
5.6903e-11
5.44104e-11
5.18528e-11
4.92372e-11
4.65567e-11
4.37944e-11
4.09683e-11
3.80772e-11
3.51171e-11
5.93232e-11
5.6903e-11
5.44172e-11
5.18657e-11
4.92373e-11
4.65453e-11
4.37891e-11
4.09683e-11
3.80772e-11
3.51212e-11
5.93309e-11
5.68958e-11
5.44103e-11
5.18593e-11
4.92372e-11
4.65511e-11
4.37943e-11
4.09733e-11
3.80728e-11
3.5117e-11
5.93232e-11
5.6903e-11
5.44172e-11
5.18657e-11
4.92373e-11
4.65453e-11
4.37891e-11
4.09683e-11
3.80772e-11
3.51212e-11
5.93232e-11
5.6903e-11
5.44104e-11
5.18528e-11
4.92372e-11
4.65567e-11
4.37944e-11
4.09683e-11
3.80772e-11
3.51171e-11
5.93232e-11
5.6903e-11
5.44172e-11
5.18657e-11
4.92373e-11
4.65453e-11
4.37891e-11
4.09683e-11
3.80772e-11
3.51212e-11
5.93232e-11
5.6903e-11
5.44172e-11
5.18657e-11
4.92373e-11
4.65453e-11
4.37891e-11
4.09683e-11
3.80772e-11
3.51212e-11
5.93232e-11
5.6903e-11
5.44104e-11
5.18528e-11
4.92372e-11
4.65567e-11
4.37944e-11
4.09683e-11
3.80772e-11
3.51171e-11
5.93232e-11
5.6903e-11
5.44172e-11
5.18657e-11
4.92373e-11
4.65453e-11
4.37891e-11
4.09683e-11
3.80772e-11
3.51212e-11
5.93309e-11
5.68958e-11
5.44103e-11
5.18593e-11
4.92372e-11
4.65511e-11
4.37943e-11
4.09733e-11
3.80728e-11
3.5117e-11
5.93232e-11
5.6903e-11
5.44172e-11
5.18657e-11
4.92373e-11
4.65453e-11
4.37891e-11
4.09683e-11
3.80772e-11
3.51212e-11
5.93232e-11
5.6903e-11
5.44104e-11
5.18528e-11
4.92372e-11
4.65567e-11
4.37944e-11
4.09683e-11
3.80772e-11
3.51171e-11
5.93232e-11
5.6903e-11
5.44172e-11
5.18657e-11
4.92373e-11
4.65453e-11
4.37891e-11
4.09683e-11
3.80772e-11
3.51212e-11
5.93232e-11
5.6903e-11
5.44172e-11
5.18657e-11
4.92373e-11
4.65453e-11
4.37891e-11
4.09683e-11
3.80772e-11
3.51212e-11
5.93232e-11
5.6903e-11
5.44104e-11
5.18528e-11
4.92372e-11
4.65567e-11
4.37944e-11
4.09683e-11
3.80772e-11
3.51171e-11
5.93232e-11
5.6903e-11
5.44172e-11
5.18657e-11
4.92373e-11
4.65453e-11
4.37891e-11
4.09683e-11
3.80772e-11
3.51212e-11
5.93309e-11
5.68958e-11
5.44103e-11
5.18593e-11
4.92372e-11
4.65511e-11
4.37943e-11
4.09733e-11
3.80728e-11
3.5117e-11
5.93232e-11
5.6903e-11
5.44172e-11
5.18657e-11
4.92373e-11
4.65453e-11
4.37891e-11
4.09683e-11
3.80772e-11
3.51212e-11
5.93232e-11
5.6903e-11
5.44104e-11
5.18528e-11
4.92372e-11
4.65567e-11
4.37944e-11
4.09683e-11
3.80772e-11
3.51171e-11
5.93232e-11
5.6903e-11
5.44172e-11
5.18657e-11
4.92373e-11
4.65453e-11
4.37891e-11
4.09683e-11
3.80772e-11
3.51212e-11
4.37679e-11
4.36194e-11
4.34211e-11
4.3173e-11
4.28751e-11
4.25212e-11
4.21237e-11
4.16763e-11
4.1179e-11
4.0632e-11
4.37747e-11
4.36195e-11
4.34146e-11
4.31667e-11
4.28689e-11
4.25272e-11
4.21295e-11
4.1682e-11
4.11791e-11
4.06266e-11
4.37679e-11
4.36194e-11
4.34211e-11
4.3173e-11
4.28751e-11
4.25212e-11
4.21237e-11
4.16763e-11
4.1179e-11
4.0632e-11
4.3761e-11
4.36194e-11
4.34276e-11
4.31731e-11
4.28689e-11
4.25272e-11
4.21237e-11
4.16706e-11
4.1179e-11
4.06373e-11
4.37679e-11
4.36194e-11
4.34211e-11
4.3173e-11
4.28751e-11
4.25212e-11
4.21237e-11
4.16763e-11
4.1179e-11
4.0632e-11
4.37747e-11
4.36195e-11
4.34146e-11
4.31667e-11
4.28689e-11
4.25272e-11
4.21295e-11
4.1682e-11
4.11791e-11
4.06266e-11
4.37679e-11
4.36194e-11
4.34211e-11
4.3173e-11
4.28751e-11
4.25212e-11
4.21237e-11
4.16763e-11
4.1179e-11
4.0632e-11
4.37679e-11
4.36194e-11
4.34211e-11
4.3173e-11
4.28751e-11
4.25212e-11
4.21237e-11
4.16763e-11
4.1179e-11
4.0632e-11
4.37747e-11
4.36195e-11
4.34146e-11
4.31667e-11
4.28689e-11
4.25272e-11
4.21295e-11
4.1682e-11
4.11791e-11
4.06266e-11
4.37679e-11
4.36194e-11
4.34211e-11
4.3173e-11
4.28751e-11
4.25212e-11
4.21237e-11
4.16763e-11
4.1179e-11
4.0632e-11
4.3761e-11
4.36194e-11
4.34276e-11
4.31731e-11
4.28689e-11
4.25272e-11
4.21237e-11
4.16706e-11
4.1179e-11
4.06373e-11
4.37679e-11
4.36194e-11
4.34211e-11
4.3173e-11
4.28751e-11
4.25212e-11
4.21237e-11
4.16763e-11
4.1179e-11
4.0632e-11
4.37747e-11
4.36195e-11
4.34146e-11
4.31667e-11
4.28689e-11
4.25272e-11
4.21295e-11
4.1682e-11
4.11791e-11
4.06266e-11
4.37679e-11
4.36194e-11
4.34211e-11
4.3173e-11
4.28751e-11
4.25212e-11
4.21237e-11
4.16763e-11
4.1179e-11
4.0632e-11
4.37679e-11
4.36194e-11
4.34211e-11
4.3173e-11
4.28751e-11
4.25212e-11
4.21237e-11
4.16763e-11
4.1179e-11
4.0632e-11
4.37747e-11
4.36195e-11
4.34146e-11
4.31667e-11
4.28689e-11
4.25272e-11
4.21295e-11
4.1682e-11
4.11791e-11
4.06266e-11
4.37679e-11
4.36194e-11
4.34211e-11
4.3173e-11
4.28751e-11
4.25212e-11
4.21237e-11
4.16763e-11
4.1179e-11
4.0632e-11
4.3761e-11
4.36194e-11
4.34276e-11
4.31731e-11
4.28689e-11
4.25272e-11
4.21237e-11
4.16706e-11
4.1179e-11
4.06373e-11
4.37679e-11
4.36194e-11
4.34211e-11
4.3173e-11
4.28751e-11
4.25212e-11
4.21237e-11
4.16763e-11
4.1179e-11
4.0632e-11
4.37747e-11
4.36195e-11
4.34146e-11
4.31667e-11
4.28689e-11
4.25272e-11
4.21295e-11
4.1682e-11
4.11791e-11
4.06266e-11
4.37679e-11
4.36194e-11
4.34211e-11
4.3173e-11
4.28751e-11
4.25212e-11
4.21237e-11
4.16763e-11
4.1179e-11
4.0632e-11
4.37679e-11
4.36194e-11
4.34211e-11
4.3173e-11
4.28751e-11
4.25212e-11
4.21237e-11
4.16763e-11
4.1179e-11
4.0632e-11
4.37747e-11
4.36195e-11
4.34146e-11
4.31667e-11
4.28689e-11
4.25272e-11
4.21295e-11
4.1682e-11
4.11791e-11
4.06266e-11
4.37679e-11
4.36194e-11
4.34211e-11
4.3173e-11
4.28751e-11
4.25212e-11
4.21237e-11
4.16763e-11
4.1179e-11
4.0632e-11
4.3761e-11
4.36194e-11
4.34276e-11
4.31731e-11
4.28689e-11
4.25272e-11
4.21237e-11
4.16706e-11
4.1179e-11
4.06373e-11
4.37679e-11
4.36194e-11
4.34211e-11
4.3173e-11
4.28751e-11
4.25212e-11
4.21237e-11
4.16763e-11
4.1179e-11
4.0632e-11
4.37747e-11
4.36195e-11
4.34146e-11
4.31667e-11
4.28689e-11
4.25272e-11
4.21295e-11
4.1682e-11
4.11791e-11
4.06266e-11
4.37679e-11
4.36194e-11
4.34211e-11
4.3173e-11
4.28751e-11
4.25212e-11
4.21237e-11
4.16763e-11
4.1179e-11
4.0632e-11
4.37679e-11
4.36194e-11
4.34211e-11
4.3173e-11
4.28751e-11
4.25212e-11
4.21237e-11
4.16763e-11
4.1179e-11
4.0632e-11
4.37747e-11
4.36195e-11
4.34146e-11
4.31667e-11
4.28689e-11
4.25272e-11
4.21295e-11
4.1682e-11
4.11791e-11