/*--------------------------------*- C++ -*----------------------------------*\
| =========                 |                                                 |
| \\      /  F ield         | OpenFOAM: The Open Source CFD Toolbox           |
|  \\    /   O peration     | Version:  plus                                  |
|   \\  /    A nd           | Web:      www.OpenFOAM.com                      |
|    \\/     M anipulation  |                                                 |
\*---------------------------------------------------------------------------*/
FoamFile
{
    version     2.0;
    format      ascii;
    class       volScalarField;
    location    "0";
    object      minTetVolume;
}
// * * * * * * * * * * * * * * * * * * * * * * * * * * * * * * * * * * * * * //

dimensions      [0 0 0 0 0 0 0];


internalField   nonuniform List<scalar> 
2650
(
0
0
0
0
0
0
0
0
0
0
0
0
0
0
0
3.04731e-07
2.6575e-07
2.30859e-07
1.99729e-07
1.72051e-07
1.47531e-07
1.25889e-07
1.06864e-07
9.02115e-08
7.57024e-08
6.3123e-08
5.22742e-08
4.2971e-08
3.50418e-08
2.83289e-08
4.65872e-06
4.06365e-06
3.53092e-06
3.0555e-06
2.63265e-06
2.25792e-06
1.9271e-06
1.6362e-06
1.38149e-06
1.15951e-06
9.67002e-07
8.00939e-07
6.58498e-07
5.37072e-07
4.3425e-07
2.29833e-05
2.00556e-05
1.7433e-05
1.50913e-05
1.30075e-05
1.11598e-05
9.52781e-06
8.09207e-06
6.83454e-06
5.73808e-06
4.78678e-06
3.96584e-06
3.26142e-06
2.6607e-06
2.15183e-06
7.11255e-05
6.20989e-05
5.40073e-05
4.67762e-05
4.03368e-05
3.4624e-05
2.95745e-05
2.51292e-05
2.1233e-05
1.78341e-05
1.48835e-05
1.23357e-05
1.01483e-05
8.28208e-06
6.7004e-06
0.000170127
0.000148639
0.000129357
0.000112111
9.674e-05
8.30896e-05
7.10138e-05
6.03749e-05
5.10416e-05
4.28928e-05
3.5815e-05
2.96992e-05
2.44447e-05
1.99584e-05
1.61538e-05
0.000345275
0.000301916
0.000262964
0.000228091
0.00019697
0.000169297
0.000144796
0.000123189
0.000104216
8.76366e-05
7.32207e-05
6.07533e-05
5.00338e-05
4.08733e-05
3.30988e-05
0.000624977
0.000547017
0.000476895
0.000414024
0.000357851
0.000307852
0.000263519
0.000224377
0.00018997
0.000159869
0.000133668
0.000110987
9.14625e-05
7.47663e-05
6.05862e-05
0.00103948
0.000910845
0.000794926
0.000690853
0.000597728
0.000514721
0.000441021
0.00037586
0.000318509
0.000268275
0.000224495
0.000186546
0.000153853
0.000125866
0.000102064
0.00161961
0.00142093
0.00124162
0.00108033
0.000935768
0.000806706
0.000691939
0.000590305
0.000500734
0.000422181
0.000353617
0.000294114
0.000242782
0.000198778
0.000161312
0.00239556
0.00210462
0.00184146
0.00160426
0.00139132
0.00120089
0.00103126
0.000880814
0.000747997
0.000631312
0.000529319
0.00044069
0.000364138
0.000298406
0.000242383
0.00339556
0.00298747
0.00261763
0.00228369
0.00198334
0.00171416
0.00147388
0.00126042
0.00107166
0.000905543
0.000760124
0.000633548
0.000524013
0.000429867
0.000349519
0.00414991
0.00365431
0.00320485
0.00279852
0.00243248
0.00210406
0.00181066
0.00154964
0.00131857
0.00111488
0.000936511
0.000781175
0.000646555
0.000530736
0.000431723
0.00445132
0.00392043
0.00343885
0.00300308
0.00261031
0.00225805
0.00194332
0.00166329
0.00141536
0.0011969
0.00100546
0.00083854
0.00069407
0.000569823
0.000463591
0.00474755
0.00418171
0.00366786
0.00320334
0.00278485
0.00240922
0.00207356
0.00177488
0.00151041
0.00127735
0.0010731
0.000895087
0.00074091
0.000608154
0.000494798
0.00503685
0.00443699
0.00389246
0.00339982
0.00295591
0.00255741
0.00220127
0.00188432
0.00160364
0.00135626
0.00113946
0.00095048
0.000786795
0.000645917
0.000525544
0.00532002
0.00468695
0.00411217
0.00359206
0.00312333
0.00270248
0.0023263
0.00199148
0.00169495
0.00143357
0.00120433
0.00100465
0.000831655
0.000682776
0.00055554
0.00559678
0.00493144
0.00432707
0.00377988
0.00328694
0.00284427
0.00244855
0.00209628
0.00178406
0.00150905
0.00126806
0.00105787
0.000875744
0.000719006
0.000585038
0.00586576
0.00516904
0.00453602
0.00396311
0.00344659
0.00298267
0.00256789
0.00219861
0.00187145
0.00158307
0.00133019
0.00110975
0.000918733
0.00075423
0.000613726
0.00612789
0.00540067
0.00473981
0.00414197
0.0036024
0.00311755
0.00268423
0.00229837
0.0019565
0.00165511
0.00139079
0.00116023
0.000960575
0.000788785
0.000641783
0
0
0
0
0
0
0
0
0
0
0
0
0
0
0
0
0
0
0
0
0
0
0
0
0
0
0
0
0
0
0
0
0
0
0
1.74886e-06
1.75089e-06
1.74886e-06
1.74886e-06
1.74886e-06
1.75089e-06
1.74886e-06
1.74886e-06
1.75089e-06
1.74886e-06
1.74886e-06
1.74886e-06
1.75089e-06
1.74886e-06
1.74886e-06
1.75089e-06
1.74886e-06
1.74886e-06
1.74886e-06
1.75089e-06
1.74886e-06
1.74886e-06
1.75089e-06
1.74886e-06
1.74886e-06
1.74886e-06
1.75089e-06
1.74886e-06
1.74886e-06
1.75089e-06
1.74886e-06
1.74886e-06
1.74886e-06
1.75089e-06
1.74886e-06
2.66236e-05
2.66545e-05
2.66236e-05
2.66236e-05
2.66236e-05
2.66545e-05
2.66236e-05
2.66236e-05
2.66545e-05
2.66236e-05
2.66236e-05
2.66236e-05
2.66545e-05
2.66236e-05
2.66236e-05
2.66545e-05
2.66236e-05
2.66236e-05
2.66236e-05
2.66545e-05
2.66236e-05
2.66236e-05
2.66545e-05
2.66236e-05
2.66236e-05
2.66236e-05
2.66545e-05
2.66236e-05
2.66236e-05
2.66545e-05
2.66236e-05
2.66236e-05
2.66236e-05
2.66545e-05
2.66236e-05
0.000130431
0.000130582
0.000130431
0.000130431
0.000130431
0.000130582
0.000130431
0.000130431
0.000130582
0.000130431
0.000130431
0.000130431
0.000130582
0.000130431
0.000130431
0.000130582
0.000130431
0.000130431
0.000130431
0.000130582
0.000130431
0.000130431
0.000130582
0.000130431
0.000130431
0.000130431
0.000130582
0.000130431
0.000130431
0.000130582
0.000130431
0.000130431
0.000130431
0.000130582
0.000130431
0.000399766
0.000400223
0.000399766
0.000399766
0.000399766
0.000400223
0.000399766
0.000399766
0.000400223
0.000399766
0.000399766
0.000399766
0.000400223
0.000399766
0.000399766
0.000400223
0.000399766
0.000399766
0.000399766
0.000400223
0.000399766
0.000399766
0.000400223
0.000399766
0.000399766
0.000399766
0.000400223
0.000399766
0.000399766
0.000400223
0.000399766
0.000399766
0.000399766
0.000400223
0.000399766
0.000944607
0.000945676
0.000944607
0.000944607
0.000944607
0.000945676
0.000944607
0.000944607
0.000945676
0.000944607
0.000944607
0.000944607
0.000945676
0.000944607
0.000944607
0.000945676
0.000944607
0.000944607
0.000944607
0.000945676
0.000944607
0.000944607
0.000945676
0.000944607
0.000944607
0.000944607
0.000945676
0.000944607
0.000944607
0.000945676
0.000944607
0.000944607
0.000944607
0.000945676
0.000944607
0.00188916
0.00189127
0.00188916
0.00188916
0.00188916
0.00189127
0.00188916
0.00188916
0.00189127
0.00188916
0.00188916
0.00188916
0.00189127
0.00188916
0.00188916
0.00189127
0.00188916
0.00188916
0.00188916
0.00189127
0.00188916
0.00188916
0.00189127
0.00188916
0.00188916
0.00188916
0.00189127
0.00188916
0.00188916
0.00189127
0.00188916
0.00188916
0.00188916
0.00189127
0.00188916
0.00336194
0.00336563
0.00336194
0.00336194
0.00336194
0.00336563
0.00336194
0.00336194
0.00336563
0.00336194
0.00336194
0.00336194
0.00336563
0.00336194
0.00336194
0.00336563
0.00336194
0.00336194
0.00336194
0.00336563
0.00336194
0.00336194
0.00336563
0.00336194
0.00336194
0.00336194
0.00336563
0.00336194
0.00336194
0.00336563
0.00336194
0.00336194
0.00336194
0.00336563
0.00336194
0.00548557
0.00549149
0.00548557
0.00548557
0.00548557
0.00549149
0.00548557
0.00548557
0.00549149
0.00548557
0.00548557
0.00548557
0.00549149
0.00548557
0.00548557
0.00549149
0.00548557
0.00548557
0.00548557
0.00549149
0.00548557
0.00548557
0.00549149
0.00548557
0.00548557
0.00548557
0.00549149
0.00548557
0.00548557
0.00549149
0.00548557
0.00548557
0.00548557
0.00549149
0.00548557
0.0083677
0.00837656
0.0083677
0.0083677
0.0083677
0.00837656
0.0083677
0.0083677
0.00837656
0.0083677
0.0083677
0.0083677
0.00837656
0.0083677
0.0083677
0.00837656
0.0083677
0.0083677
0.0083677
0.00837656
0.0083677
0.0083677
0.00837656
0.0083677
0.0083677
0.0083677
0.00837656
0.0083677
0.0083677
0.00837656
0.0083677
0.0083677
0.0083677
0.00837656
0.0083677
0.0120963
0.0121088
0.0120963
0.0120963
0.0120963
0.0121088
0.0120963
0.0120963
0.0121088
0.0120963
0.0120963
0.0120963
0.0121088
0.0120963
0.0120963
0.0121088
0.0120963
0.0120963
0.0120963
0.0121088
0.0120963
0.0120963
0.0121088
0.0120963
0.0120963
0.0120963
0.0121088
0.0120963
0.0120963
0.0121088
0.0120963
0.0120963
0.0120963
0.0121088
0.0120963
0.0167287
0.0167456
0.0167287
0.0167287
0.0167287
0.0167456
0.0167287
0.0167287
0.0167456
0.0167287
0.0167287
0.0167287
0.0167456
0.0167287
0.0167287
0.0167456
0.0167287
0.0167287
0.0167287
0.0167456
0.0167287
0.0167287
0.0167456
0.0167287
0.0167287
0.0167287
0.0167456
0.0167287
0.0167287
0.0167456
0.0167287
0.0167287
0.0167287
0.0167456
0.0167287
0.020329
0.0203492
0.020329
0.020329
0.020329
0.0203492
0.020329
0.020329
0.0203492
0.020329
0.020329
0.020329
0.0203492
0.020329
0.020329
0.0203492
0.020329
0.020329
0.020329
0.0203492
0.020329
0.020329
0.0203492
0.020329
0.020329
0.020329
0.0203492
0.020329
0.020329
0.0203492
0.020329
0.020329
0.020329
0.0203492
0.020329
0.0218457
0.0218673
0.0218457
0.0218457
0.0218457
0.0218673
0.0218457
0.0218457
0.0218673
0.0218457
0.0218457
0.0218457
0.0218673
0.0218457
0.0218457
0.0218673
0.0218457
0.0218457
0.0218457
0.0218673
0.0218457
0.0218457
0.0218673
0.0218457
0.0218457
0.0218457
0.0218673
0.0218457
0.0218457
0.0218673
0.0218457
0.0218457
0.0218457
0.0218673
0.0218457
0.0233377
0.0233606
0.0233377
0.0233377
0.0233377
0.0233606
0.0233377
0.0233377
0.0233606
0.0233377
0.0233377
0.0233377
0.0233606
0.0233377
0.0233377
0.0233606
0.0233377
0.0233377
0.0233377
0.0233606
0.0233377
0.0233377
0.0233606
0.0233377
0.0233377
0.0233377
0.0233606
0.0233377
0.0233377
0.0233606
0.0233377
0.0233377
0.0233377
0.0233606
0.0233377
0.0248086
0.024833
0.0248086
0.0248086
0.0248086
0.024833
0.0248086
0.0248086
0.024833
0.0248086
0.0248086
0.0248086
0.024833
0.0248086
0.0248086
0.024833
0.0248086
0.0248086
0.0248086
0.024833
0.0248086
0.0248086
0.024833
0.0248086
0.0248086
0.0248086
0.024833
0.0248086
0.0248086
0.024833
0.0248086
0.0248086
0.0248086
0.024833
0.0248086
0.0262518
0.0262774
0.0262518
0.0262518
0.0262518
0.0262774
0.0262518
0.0262518
0.0262774
0.0262518
0.0262518
0.0262518
0.0262774
0.0262518
0.0262518
0.0262774
0.0262518
0.0262518
0.0262518
0.0262774
0.0262518
0.0262518
0.0262774
0.0262518
0.0262518
0.0262518
0.0262774
0.0262518
0.0262518
0.0262774
0.0262518
0.0262518
0.0262518
0.0262774
0.0262518
0.0276835
0.0277104
0.0276835
0.0276835
0.0276835
0.0277104
0.0276835
0.0276835
0.0277104
0.0276835
0.0276835
0.0276835
0.0277104
0.0276835
0.0276835
0.0277104
0.0276835
0.0276835
0.0276835
0.0277104
0.0276835
0.0276835
0.0277104
0.0276835
0.0276835
0.0276835
0.0277104
0.0276835
0.0276835
0.0277104
0.0276835
0.0276835
0.0276835
0.0277104
0.0276835
0.0290859
0.0291141
0.0290859
0.0290859
0.0290859
0.0291141
0.0290859
0.0290859
0.0291141
0.0290859
0.0290859
0.0290859
0.0291141
0.0290859
0.0290859
0.0291141
0.0290859
0.0290859
0.0290859
0.0291141
0.0290859
0.0290859
0.0291141
0.0290859
0.0290859
0.0290859
0.0291141
0.0290859
0.0290859
0.0291141
0.0290859
0.0290859
0.0290859
0.0291141
0.0290859
0.0304571
0.0304865
0.0304571
0.0304571
0.0304571
0.0304865
0.0304571
0.0304571
0.0304865
0.0304571
0.0304571
0.0304571
0.0304865
0.0304571
0.0304571
0.0304865
0.0304571
0.0304571
0.0304571
0.0304865
0.0304571
0.0304571
0.0304865
0.0304571
0.0304571
0.0304571
0.0304865
0.0304571
0.0304571
0.0304865
0.0304571
0.0304571
0.0304571
0.0304865
0.0304571
0
0
0
0
0
0
0
0
0
0
0
0
0
0
0
0
0
0
0
0
0
0
0
0
0
0
0
0
0
0
0
0
0
0
0
0
0
0
0
0
1.61118e-09
1.74879e-09
1.89565e-09
2.0522e-09
2.21894e-09
2.39635e-09
2.58492e-09
2.78518e-09
2.99766e-09
3.22292e-09
3.46152e-09
3.71403e-09
3.9811e-09
4.2633e-09
4.56127e-09
4.87566e-09
5.20717e-09
5.55649e-09
5.92428e-09
6.31128e-09
6.71828e-09
7.14599e-09
7.59518e-09
8.06671e-09
8.56137e-09
9.08003e-09
9.62351e-09
1.01927e-08
1.07884e-08
1.14118e-08
1.20636e-08
1.2745e-08
1.34566e-08
1.41998e-08
1.49754e-08
1.57845e-08
1.66283e-08
1.75074e-08
1.84237e-08
1.93779e-08
2.47345e-08
2.68465e-08
2.91005e-08
3.15034e-08
3.40624e-08
3.6785e-08
3.9679e-08
4.27524e-08
4.6013e-08
4.94695e-08
5.31309e-08
5.7006e-08
6.11036e-08
6.54335e-08
7.00056e-08
7.48295e-08
7.99154e-08
8.52743e-08
9.0917e-08
9.68544e-08
1.03098e-07
1.09658e-07
1.16547e-07
1.2378e-07
1.31367e-07
1.39322e-07
1.47657e-07
1.56387e-07
1.65524e-07
1.75084e-07
1.85079e-07
1.95526e-07
2.06439e-07
2.17834e-07
2.29726e-07
2.42132e-07
2.55069e-07
2.68551e-07
2.82596e-07
2.97225e-07
1.22873e-07
1.33362e-07
1.44555e-07
1.56486e-07
1.69192e-07
1.8271e-07
1.97077e-07
2.12334e-07
2.28522e-07
2.45682e-07
2.63857e-07
2.8309e-07
3.03429e-07
3.24919e-07
3.47609e-07
3.7155e-07
3.96791e-07
4.2338e-07
4.51378e-07
4.80837e-07
5.11812e-07
5.44363e-07
5.78548e-07
6.14428e-07
6.52066e-07
6.91521e-07
7.32863e-07
7.76157e-07
8.21466e-07
8.6887e-07
9.18437e-07
9.70238e-07
1.02435e-06
1.08084e-06
1.13979e-06
1.20129e-06
1.26541e-06
1.33223e-06
1.40185e-06
1.47435e-06
3.83939e-07
4.16696e-07
4.51649e-07
4.88909e-07
5.28586e-07
5.70794e-07
6.15654e-07
6.63287e-07
7.13822e-07
7.67387e-07
8.24116e-07
8.84149e-07
9.47628e-07
1.01469e-06
1.08549e-06
1.16019e-06
1.23894e-06
1.32191e-06
1.40925e-06
1.50115e-06
1.59778e-06
1.69929e-06
1.80588e-06
1.91779e-06
2.03517e-06
2.15822e-06
2.28708e-06
2.42202e-06
2.5633e-06
2.71107e-06
2.86557e-06
3.02703e-06
3.1956e-06
3.37159e-06
3.55531e-06
3.74693e-06
3.94671e-06
4.15481e-06
4.37159e-06
4.59739e-06
9.29784e-07
1.00906e-06
1.09365e-06
1.1838e-06
1.2798e-06
1.38192e-06
1.49042e-06
1.60565e-06
1.72788e-06
1.85742e-06
1.99467e-06
2.13982e-06
2.2933e-06
2.45544e-06
2.62661e-06
2.80718e-06
2.99753e-06
3.19812e-06
3.40918e-06
3.63124e-06
3.86465e-06
4.10997e-06
4.36768e-06
4.63791e-06
4.92132e-06
5.21836e-06
5.52968e-06
5.85564e-06
6.19662e-06
6.5534e-06
6.92622e-06
7.31577e-06
7.72274e-06
8.14759e-06
8.5907e-06
9.05281e-06
9.53473e-06
1.00369e-05
1.05599e-05
1.11042e-05
1.91551e-06
2.07872e-06
2.25285e-06
2.43836e-06
2.63595e-06
2.84612e-06
3.06939e-06
3.30648e-06
3.558e-06
3.82443e-06
4.10655e-06
4.40514e-06
4.7207e-06
5.05419e-06
5.40619e-06
5.77734e-06
6.16869e-06
6.58073e-06
7.01444e-06
7.47082e-06
7.95058e-06
8.45435e-06
8.98326e-06
9.53847e-06
1.01205e-05
1.07307e-05
1.13698e-05
1.20387e-05
1.27389e-05
1.34708e-05
1.42358e-05
1.50354e-05
1.58703e-05
1.67413e-05
1.76505e-05
1.85985e-05
1.95858e-05
2.06152e-05
2.16873e-05
2.28028e-05
3.52893e-06
3.82921e-06
4.14955e-06
4.49106e-06
4.85447e-06
5.24098e-06
5.65179e-06
6.0879e-06
6.55044e-06
7.04056e-06
7.55929e-06
8.10805e-06
8.68835e-06
9.30102e-06
9.94762e-06
1.06299e-05
1.13486e-05
1.21058e-05
1.29031e-05
1.37409e-05
1.46215e-05
1.55468e-05
1.65178e-05
1.75365e-05
1.8605e-05
1.97243e-05
2.08965e-05
2.2124e-05
2.34081e-05
2.47509e-05
2.61542e-05
2.76195e-05
2.91494e-05
3.07466e-05
3.24117e-05
3.41479e-05
3.5958e-05
3.78426e-05
3.98058e-05
4.18499e-05
5.98871e-06
6.49774e-06
7.04092e-06
7.61972e-06
8.23583e-06
8.891e-06
9.58705e-06
1.03252e-05
1.1108e-05
1.1938e-05
1.28166e-05
1.37461e-05
1.47284e-05
1.57658e-05
1.68602e-05
1.80141e-05
1.92305e-05
2.05109e-05
2.18581e-05
2.32755e-05
2.4765e-05
2.63287e-05
2.79699e-05
2.96921e-05
3.14976e-05
3.33892e-05
3.537e-05
3.74431e-05
3.96097e-05
4.18748e-05
4.42435e-05
4.67174e-05
4.92999e-05
5.19942e-05
5.48041e-05
5.77321e-05
6.07828e-05
6.39613e-05
6.72688e-05
7.07106e-05
9.54462e-06
1.03552e-05
1.12195e-05
1.21405e-05
1.31204e-05
1.41623e-05
1.52694e-05
1.64444e-05
1.76902e-05
1.90094e-05
2.04057e-05
2.1883e-05
2.34434e-05
2.50912e-05
2.68311e-05
2.86648e-05
3.0596e-05
3.2629e-05
3.47681e-05
3.70179e-05
3.93808e-05
4.18631e-05
4.4469e-05
4.71997e-05
5.00619e-05
5.30601e-05
5.61991e-05
5.94848e-05
6.2921e-05
6.65127e-05
7.02635e-05
7.41799e-05
7.8269e-05
8.25329e-05
8.69785e-05
9.16156e-05
9.64441e-05
0.00010147
0.0001067
0.000112142
1.4475e-05
1.57028e-05
1.70119e-05
1.84052e-05
1.98892e-05
2.14667e-05
2.31415e-05
2.49193e-05
2.68031e-05
2.87992e-05
3.09116e-05
3.31445e-05
3.55045e-05
3.7995e-05
4.06223e-05
4.33927e-05
4.63098e-05
4.93818e-05
5.26131e-05
5.60085e-05
5.95769e-05
6.33214e-05
6.725e-05
7.13711e-05
7.56896e-05
8.02126e-05
8.49449e-05
8.98955e-05
9.50736e-05
0.000100483
0.000106135
0.000112036
0.00011819
0.000124611
0.000131302
0.000138273
0.000145536
0.000153091
0.000160958
0.000169141
2.10866e-05
2.28716e-05
2.47747e-05
2.68023e-05
2.89587e-05
3.12517e-05
3.36865e-05
3.62686e-05
3.90064e-05
4.19044e-05
4.49708e-05
4.82125e-05
5.16382e-05
5.52556e-05
5.90678e-05
6.30855e-05
6.73184e-05
7.17713e-05
7.64541e-05
8.13778e-05
8.6549e-05
9.19765e-05
9.76675e-05
0.000103634
0.000109883
0.000116428
0.000123282
0.000130447
0.000137935
0.00014576
0.000153931
0.000162457
0.00017135
0.000180626
0.000190297
0.000200363
0.000210844
0.000221756
0.000233103
0.000244902
2.66083e-05
2.88606e-05
3.12618e-05
3.38189e-05
3.65394e-05
3.94259e-05
4.24905e-05
4.57464e-05
4.91971e-05
5.28449e-05
5.67039e-05
6.07895e-05
6.50977e-05
6.96445e-05
7.44467e-05
7.95072e-05
8.48364e-05
9.04439e-05
9.63404e-05
0.000102527
0.000109012
0.000115829
0.000122989
0.000130494
0.000138356
0.000146587
0.000155185
0.000164176
0.000173588
0.00018342
0.000193685
0.00020438
0.000215534
0.000227161
0.000239275
0.000251912
0.000265068
0.000278757
0.000292996
0.000307798
2.87268e-05
3.11542e-05
3.37417e-05
3.65015e-05
3.94328e-05
4.25478e-05
4.58603e-05
4.93683e-05
5.30859e-05
5.70349e-05
6.12064e-05
6.56087e-05
7.02659e-05
7.5173e-05
8.03472e-05
8.58084e-05
9.15499e-05
9.75906e-05
0.000103953
0.000110638
0.000117659
0.000125027
0.000132755
0.000140841
0.000149312
0.000158194
0.000167471
0.000177173
0.000187328
0.000197919
0.000208976
0.000220551
0.000232605
0.000245151
0.000258244
0.000271857
0.000286029
0.000300798
0.000316133
0.000332076
3.08326e-05
3.34421e-05
3.62241e-05
3.91819e-05
4.23333e-05
4.5677e-05
4.9227e-05
5.29985e-05
5.69956e-05
6.1221e-05
6.56983e-05
7.04311e-05
7.54136e-05
8.06884e-05
8.62511e-05
9.21032e-05
9.82751e-05
0.00010477
0.000111588
0.00011874
0.000126274
0.000134181
0.00014246
0.000151151
0.000160255
0.000169771
0.000179727
0.000190154
0.000201034
0.000212417
0.000224301
0.000236682
0.000249616
0.000263077
0.000277102
0.000291732
0.000306961
0.000322782
0.000339262
0.000356396
3.29445e-05
3.57279e-05
3.8695e-05
4.18544e-05
4.52206e-05
4.8804e-05
5.25967e-05
5.66195e-05
6.08823e-05
6.5403e-05
7.01857e-05
7.52331e-05
8.05724e-05
8.61981e-05
9.21303e-05
9.8391e-05
0.000104984
0.00011191
0.000119191
0.000126855
0.000134903
0.00014335
0.000152193
0.000161461
0.000171169
0.000181349
0.000192017
0.000203136
0.000214757
0.000226895
0.000239588
0.000252832
0.000266623
0.000281022
0.000296001
0.000311625
0.00032789
0.000344785
0.000362357
0.000380623
3.50411e-05
3.80065e-05
4.1168e-05
4.45347e-05
4.81102e-05
5.19098e-05
5.59503e-05
6.02365e-05
6.47789e-05
6.95805e-05
7.46599e-05
8.00375e-05
8.57172e-05
9.17114e-05
9.80326e-05
0.000104683
0.000111685
0.000119052
0.000126797
0.00013495
0.000143496
0.000152465
0.000161885
0.000171758
0.000182101
0.000192911
0.000204221
0.000216065
0.000228444
0.000241375
0.000254853
0.000268916
0.000283606
0.000298919
0.000314875
0.000331464
0.000348733
0.000366729
0.000385445
0.000404871
3.71537e-05
4.02925e-05
4.36383e-05
4.72067e-05
5.10029e-05
5.50307e-05
5.93065e-05
6.38493e-05
6.86558e-05
7.37447e-05
7.91367e-05
8.48362e-05
9.08461e-05
9.71882e-05
0.000103886
0.000110933
0.000118353
0.000126185
0.000134421
0.000143048
0.000152106
0.000161627
0.000171611
0.000182059
0.000193002
0.000204476
0.000216462
0.000228994
0.000242112
0.000255814
0.000270096
0.000284997
0.000300562
0.000316762
0.000333639
0.000351244
0.000369569
0.000388605
0.000408401
0.000429046
3.92498e-05
4.25711e-05
4.61116e-05
4.98757e-05
5.38797e-05
5.81415e-05
6.26664e-05
6.7458e-05
7.25442e-05
7.79293e-05
8.36171e-05
8.9619e-05
9.59778e-05
0.000102689
0.000109753
0.00011721
0.000125061
0.000133308
0.00014198
0.000151106
0.000160689
0.00017073
0.000181258
0.00019231
0.000203887
0.000215987
0.000228666
0.000241925
0.000255758
0.000270207
0.000285314
0.000301078
0.000317491
0.000334629
0.000352483
0.000371047
0.000390338
0.000410472
0.000431412
0.000453144
4.13483e-05
4.48468e-05
4.85703e-05
5.25349e-05
5.67591e-05
6.12484e-05
6.6007e-05
7.10539e-05
7.64108e-05
8.20827e-05
8.80732e-05
9.44153e-05
0.000101114
0.000108183
0.000115625
0.000123466
0.000131735
0.000140437
0.000149571
0.000159168
0.00016926
0.000179852
0.000190941
0.000202563
0.000214736
0.000227498
0.000240851
0.000254791
0.000269358
0.000284597
0.000300507
0.000317081
0.000334364
0.000352408
0.000371208
0.000390754
0.000411132
0.000432334
0.000454385
0.000477268
0.105785
0.121557
0.139242
0.158815
0.180085
0.202732
0.226166
0.249565
0.208471
0.166173
0.103995
0.119372
0.13659
0.155596
0.176309
0.198182
0.220838
0.243388
0.207793
0.165801
0.102219
0.117209
0.134024
0.152443
0.172454
0.193682
0.215683
0.23732
0.207084
0.165177
0.100471
0.115067
0.131412
0.149321
0.168782
0.18928
0.210501
0.23138
0.206485
0.164629
0.0987527
0.112994
0.128802
0.146304
0.165039
0.185014
0.205316
0.225653
0.205593
0.164066
0.0970231
0.110896
0.12627
0.143248
0.161475
0.180742
0.200345
0.219916
0.204793
0.163602
0.09531
0.10882
0.123823
0.140258
0.157845
0.176527
0.195544
0.214291
0.203961
0.16289
0.093614
0.106768
0.121351
0.137299
0.154413
0.172392
0.190736
0.208779
0.203098
0.162261
0.0919356
0.104741
0.118916
0.134374
0.151012
0.168337
0.186035
0.203377
0.202204
0.161726
0.090275
0.102737
0.116563
0.131513
0.147555
0.164341
0.1815
0.198088
0.201278
0.160948
0.0886449
0.100762
0.114176
0.128691
0.144265
0.16044
0.176951
0.192924
0.200454
0.160237
0.0870468
0.0988511
0.111796
0.125966
0.140925
0.156669
0.172415
0.187958
0.199353
0.159508
0.0854417
0.096923
0.109496
0.123218
0.137748
0.152902
0.168076
0.182997
0.196595
0.158876
0.083856
0.0950209
0.107274
0.120532
0.134525
0.149197
0.163895
0.178145
0.191165
0.158007
0.0822897
0.0931448
0.105038
0.117882
0.131483
0.145569
0.159719
0.173402
0.185863
0.157212
0.0807432
0.0912951
0.10284
0.11527
0.128474
0.142018
0.155646
0.168765
0.180688
0.156505
0.0792167
0.0894718
0.100719
0.112717
0.125425
0.13853
0.151725
0.164236
0.175638
0.155568
0.0777215
0.087679
0.0985728
0.110208
0.122528
0.135131
0.147798
0.159825
0.170729
0.154687
0.0762586
0.0859463
0.0964388
0.107788
0.119595
0.131852
0.143896
0.155589
0.166017
0.153788
0.0747926
0.0842027
0.0943812
0.105355
0.116808
0.128582
0.14017
0.151369
0.16133
0.15298
0.0733471
0.0824861
0.0923951
0.102979
0.11399
0.125375
0.136585
0.14725
0.156762
0.151952
0.0719223
0.0807964
0.0904012
0.100641
0.111334
0.12224
0.133012
0.143231
0.15231
0.150988
0.0705183
0.0791336
0.0884473
0.0983413
0.108709
0.119176
0.129535
0.13931
0.147973
0.150106
0.069135
0.0774978
0.0865617
0.0960967
0.106059
0.116174
0.126192
0.135487
0.143749
0.149011
0.0677827
0.0758933
0.0846591
0.0938967
0.103541
0.113253
0.12285
0.131771
0.139652
0.14599
0.0664619
0.0743434
0.082771
0.0917761
0.101001
0.11044
0.119537
0.128208
0.135725
0.141563
0.0651406
0.0727875
0.0809546
0.0896494
0.0985878
0.107639
0.116379
0.124664
0.131825
0.137366
0.0638401
0.0712582
0.079202
0.0875748
0.0961551
0.104897
0.113344
0.121212
0.128031
0.133346
0.0625605
0.0697555
0.0774466
0.0855374
0.0938642
0.10222
0.110324
0.117848
0.124339
0.129363
0.0613015
0.0682792
0.0757302
0.0835371
0.0916024
0.0996081
0.107391
0.114571
0.120748
0.12551
0.0600632
0.0668291
0.0740743
0.0815866
0.0893251
0.0970531
0.104573
0.111381
0.117256
0.121822
0.0588547
0.0654099
0.0724068
0.0796793
0.0871618
0.0945719
0.10176
0.108285
0.113875
0.118159
0.0576757
0.0640392
0.070755
0.0778416
0.0849853
0.0921832
0.0989769
0.10532
0.110635
0.114542
0.0564983
0.0626661
0.0691689
0.0760026
0.0829177
0.0898086
0.0963275
0.102374
0.107425
0.111116
0.0550008
0.0613186
0.0676389
0.0742101
0.0808391
0.087488
0.0937833
0.0995083
0.104304
0.107839
0.0120928
0.013821
0.015819
0.0181315
0.0208124
0.0239211
0.0275364
0.0317424
0.0366367
0.0423363
0.0119368
0.0136267
0.0155823
0.0178388
0.0204585
0.0234934
0.0270037
0.0310945
0.0358239
0.0413406
0.0117714
0.0134326
0.0153422
0.0175491
0.0201
0.0230482
0.0264648
0.030425
0.0350261
0.0403373
0.0116043
0.0132294
0.0151004
0.0172491
0.0197354
0.022609
0.0259181
0.0297593
0.034203
0.0393441
0.0114355
0.0130225
0.0148477
0.0169519
0.0193674
0.0221546
0.0253804
0.029089
0.0333779
0.0383305
0.0112653
0.012813
0.0145945
0.0166417
0.018995
0.0217073
0.0248292
0.0284243
0.0325542
0.0373316
0.0110874
0.012605
0.0143393
0.016336
0.0186203
0.0212472
0.0242767
0.0277449
0.0317509
0.036332
0.0109107
0.0123893
0.0140828
0.0160218
0.0182456
0.0207936
0.023719
0.0270777
0.0309291
0.0353472
0.010733
0.0121723
0.0138218
0.0157042
0.0178666
0.0203406
0.0231647
0.0264138
0.0301133
0.0343652
0.0105488
0.0119577
0.01356
0.0153923
0.0174867
0.0198779
0.0226124
0.0257396
0.029321
0.033387
0.0103648
0.0117363
0.0132994
0.0150749
0.0171063
0.0194248
0.0220594
0.0250767
0.0285146
0.0324296
0.0101806
0.0115138
0.013032
0.0147632
0.0167262
0.0189639
0.0215206
0.0244162
0.0277159
0.0314671
0.0099968
0.0112916
0.0127666
0.014443
0.0163467
0.0185135
0.0209747
0.023768
0.0269282
0.0305282
0.00980813
0.0110727
0.0125018
0.0141296
0.0159684
0.0180571
0.0204344
0.0231149
0.0261669
0.0295977
0.00962229
0.0108485
0.0122386
0.0138115
0.0155945
0.0176111
0.0198943
0.022479
0.0253966
0.0286908
0.00943672
0.0106258
0.0119738
0.0134941
0.0152203
0.0171693
0.0193627
0.0218516
0.0246404
0.0277956
0.00924737
0.0104068
0.0117105
0.013184
0.0148485
0.0167239
0.0188386
0.0212225
0.0239115
0.0269116
0.00905958
0.0101836
0.0114504
0.0128726
0.0144801
0.0162904
0.0183189
0.0206089
0.023177
0.0260535
0.00887314
0.00996119
0.0111871
0.0125687
0.0141148
0.0158548
0.0178159
0.0200025
0.0224558
0.0252002
0.00868845
0.00974148
0.0109276
0.0122601
0.0137537
0.0154315
0.0173111
0.0194118
0.0217513
0.0243739
0.00850131
0.00952609
0.0106706
0.0119595
0.0133964
0.0150073
0.0168157
0.0188229
0.0210744
0.0235612
0.00831808
0.00930768
0.0104174
0.0116575
0.0130461
0.0145954
0.0163243
0.0182533
0.0203955
0.0227752
0.00813618
0.00909269
0.0101647
0.0113589
0.0126984
0.0141899
0.0158442
0.0176948
0.0197345
0.0220051
0.00795271
0.00888229
0.00991516
0.0110684
0.0123552
0.0137852
0.0153744
0.01714
0.0191006
0.0212497
0.00777178
0.00866969
0.00967006
0.0107796
0.0120177
0.0133931
0.0149123
0.0166021
0.0184668
0.0205207
0.00759332
0.00845939
0.00942449
0.010499
0.0116853
0.0130028
0.014467
0.0160739
0.0178486
0.0198018
0.00741748
0.00825333
0.00918377
0.0102167
0.0113589
0.0126249
0.0140234
0.0155622
0.017249
0.0191092
0.00724109
0.00805202
0.00894683
0.00994266
0.0110379
0.0122496
0.0135909
0.0150561
0.0166751
0.018432
0.00706917
0.00784947
0.00871488
0.00966948
0.0107253
0.0118869
0.0131644
0.014569
0.0161035
0.0177808
0.00689927
0.0076516
0.00848476
0.00940129
0.0104166
0.0115315
0.01275
0.0140936
0.0155505
0.017146
0.00672946
0.00745851
0.0082588
0.00914126
0.0101138
0.0111796
0.0123468
0.0136249
0.0150219
0.0165267
0.00656268
0.00726478
0.00803784
0.00888483
0.00981758
0.0108398
0.0119527
0.0131722
0.0144966
0.0159314
0.00639911
0.00707422
0.00781822
0.00863627
0.0095274
0.0105038
0.011574
0.01273
0.0139867
0.0153481
0.00623855
0.00688873
0.00760376
0.00838819
0.0092438
0.0101796
0.011199
0.0123032
0.0134949
0.014788
0.00596912
0.00670792
0.00739379
0.00814798
0.00896641
0.00985978
0.010835
0.0118838
0.0130254
0.014243
0.00525563
0.00525552
0.00525571
0.00525571
0.00525545
0.00525571
0.00525571
0.00525545
0.00525571
0.00525571
0.00525466
0.00525649
0.00525649
0.00525388
0.00525649
0.00541783
0.00541772
0.00541791
0.00541791
0.00541764
0.00541791
0.00541791
0.00541764
0.00541791
0.00541791
0.00541684
0.00541872
0.00541872
0.00541603
0.00541872
0.0055792
0.00557909
0.00557928
0.00557928
0.00557901
0.00557928
0.00557928
0.00557901
0.00557928
0.00557928
0.00557818
0.00558011
0.00558011
0.00557735
0.00558011
0.00573972
0.00573961
0.00573981
0.00573981
0.00573952
0.00573981
0.00573981
0.00573952
0.00573981
0.00573981
0.00573867
0.00574066
0.00574066
0.00573782
0.00574066
0.00589938
0.00589926
0.00589946
0.00589946
0.00589917
0.00589946
0.00589946
0.00589917
0.00589946
0.00589946
0.0058983
0.00590034
0.00590034
0.00589742
0.00590034
0.00605815
0.00605803
0.00605824
0.00605824
0.00605794
0.00605824
0.00605824
0.00605794
0.00605824
0.00605824
0.00605704
0.00605914
0.00605914
0.00605615
0.00605914
0.00621603
0.0062159
0.00621612
0.00621612
0.00621581
0.00621612
0.00621612
0.00621581
0.00621612
0.00621612
0.0062149
0.00621704
0.00621704
0.00621398
0.00621704
0.00637297
0.00637284
0.00637306
0.00637306
0.00637275
0.00637306
0.00637306
0.00637275
0.00637306
0.00637306
0.00637181
0.006374
0.006374
0.00637087
0.006374
0.006529
0.00652887
0.00652909
0.00652909
0.00652877
0.00652909
0.00652909
0.00652877
0.00652909
0.00652909
0.00652781
0.00653005
0.00653005
0.00652685
0.00653005
0.00668408
0.00668395
0.00668418
0.00668418
0.00668385
0.00668418
0.00668418
0.00668385
0.00668418
0.00668418
0.00668287
0.00668516
0.00668516
0.00668188
0.00668516
)
;

boundaryField
{
    inlet_one
    {
        type            zeroGradient;
    }
    inlet_two
    {
        type            zeroGradient;
    }
    outlet
    {
        type            zeroGradient;
    }
    walls
    {
        type            zeroGradient;
    }
    front
    {
        type            wedge;
    }
    back
    {
        type            wedge;
    }
}


// ************************************************************************* //
