/*--------------------------------*- C++ -*----------------------------------*\
| =========                 |                                                 |
| \\      /  F ield         | OpenFOAM: The Open Source CFD Toolbox           |
|  \\    /   O peration     | Version:  plus                                  |
|   \\  /    A nd           | Web:      www.OpenFOAM.com                      |
|    \\/     M anipulation  |                                                 |
\*---------------------------------------------------------------------------*/
FoamFile
{
    version     2.0;
    format      ascii;
    class       volScalarField;
    location    "0";
    object      nonOrthoAngle;
}
// * * * * * * * * * * * * * * * * * * * * * * * * * * * * * * * * * * * * * //

dimensions      [0 0 0 0 0 0 0];


internalField   nonuniform List<scalar> 
2650
(
0.381804
0.381455
0.381685
0.381526
0.381544
0.381703
0.381509
0.381501
0.381726
0.381607
0.381755
0.381489
0.381586
0.381801
0.381448
0.763135
0.763305
0.763104
0.763202
0.763203
0.763086
0.763295
0.763197
0.763004
0.763145
0.763038
0.763198
0.763307
0.762997
0.763199
1.14468
1.14459
1.14476
1.14455
1.14467
1.14467
1.14472
1.14467
1.14469
1.14485
1.14468
1.14468
1.1445
1.14487
1.14468
1.52598
1.52597
1.52584
1.5269
1.52597
1.52593
1.52578
1.5263
1.5261
1.52585
1.52601
1.52621
1.52623
1.52574
1.52626
1.90733
1.90734
1.90741
1.907
1.90734
1.90735
1.90745
1.90681
1.90846
1.90714
1.90714
1.90688
1.90735
1.90768
1.90716
2.28832
2.28832
2.28832
2.28795
2.28928
2.28834
2.28833
2.28867
2.28773
2.28857
2.28849
2.2886
2.28778
2.28973
2.288
2.66997
2.6692
2.6692
2.67014
2.6688
2.66918
2.66922
2.6692
2.66975
2.6692
2.66922
2.66918
2.67148
2.66643
2.66954
3.04883
3.05065
3.04984
3.04982
3.05042
3.04984
3.04982
3.04985
3.05039
3.04984
3.04984
3.05146
3.04696
3.05167
3.04984
3.43091
3.42996
3.43022
3.43025
3.43076
3.43022
3.43019
3.43142
3.42954
3.43019
3.4302
3.42916
3.43189
3.4302
3.43229
3.81022
3.81002
3.81116
3.8103
3.81076
3.81029
3.81031
3.80961
3.81155
3.81026
3.81178
3.80928
3.81027
3.81218
3.80678
4.19005
4.19088
4.18965
4.19
4.18963
4.19097
4.19006
4.1905
4.19003
4.19001
4.18907
4.19157
4.19176
4.18684
4.192
4.57018
4.56939
4.56989
4.56931
4.5705
4.56885
4.5693
4.57002
4.56932
4.57073
4.56857
4.56936
4.56816
4.57118
4.57147
4.94815
4.94828
4.94812
4.9492
4.94827
4.94894
4.94827
4.94893
4.94829
4.94761
4.94975
4.94994
4.94718
4.94831
4.94684
5.32666
5.32764
5.32777
5.32654
5.32681
5.32746
5.3269
5.32737
5.3269
5.32747
5.32679
5.32583
5.32856
5.32863
5.3255
5.70574
5.70469
5.70488
5.70545
5.70495
5.70552
5.70496
5.70544
5.70496
5.70542
5.70497
5.70542
5.70497
5.70364
5.70678
6.08245
6.08307
6.08245
6.08308
6.08244
6.08308
6.08244
6.08309
6.08243
6.08309
6.08392
6.08154
6.08429
6.08128
6.08457
6.46027
6.45921
6.46041
6.46011
6.45948
6.46011
6.45948
6.46012
6.46086
6.45868
6.45853
6.46123
6.45826
6.46128
6.4582
6.83581
6.83681
6.83571
6.83653
6.83609
6.83652
6.83603
6.83652
6.83529
6.83729
6.8366
6.83593
6.83661
6.83796
6.83449
7.21246
7.2119
7.21241
7.21152
7.21287
7.21241
7.21184
7.21247
7.2124
7.21191
7.21248
7.21344
7.21079
7.21058
7.21587
7.40148
7.40148
7.40161
7.40161
7.40161
7.40161
7.40147
7.40176
7.40176
7.40148
7.40162
7.40162
7.40161
7.40162
7.40162
0.178864
0
0
0
0
0
0
0
0
0
0
0
0
0
0
0
0
0
0
0
0
0
0
0
0
0
0
0
0
0
0
0
0
0
0.0438445
0.417322
0
0
0
0
0
0
0
0
0
0
0
0
0
0
0
0
0
0
0
0
0
0
0
0
0
0
0
0
0
0
0
0
0
0.102304
0.679593
0
0
0
0
0
0
0
0
0
0
0
0
0
0
0
0
0
0
0
0
0
0
0
0
0
0
0
0
0
0
0
0
0
0.166595
0.945241
0
0
0
0
0
0
0
0
0
0
0
0
0
0
0
0
0
0
0
0
0
0
0
0
0
0
0
0
0
0
0
0
0
0.231707
1.21201
0
0
0
0
0
0
0
0
0
0
0
0
0
0
0
0
0
0
0
0
0
0
0
0
0
0
0
0
0
0
0
0
0
0.297113
1.47923
0
0
0
0
0
0
0
0
0
0
0
0
0
0
0
0
0
0
0
0
0
0
0
0
0
0
0
0
0
0
0
0
0
0.362655
1.74661
0
0
0
0
0
0
0
0
0
0
0
0
0
0
0
0
0
0
0
0
0
0
0
0
0
0
0
0
0
0
0
0
0
0.428211
2.01408
0
0
0
0
0
0
0
0
0
0
0
0
0
0
0
0
0
0
0
0
0
0
0
0
0
0
0
0
0
0
0
0
0
0.493838
2.28161
0
0
0
0
0
0
0
0
0
0
0
0
0
0
0
0
0
0
0
0
0
0
0
0
0
0
0
0
0
0
0
0
0
0.55943
2.54933
0
0
0
0
0
0
0
0
0
0
0
0
0
0
0
0
0
0
0
0
0
0
0
0
0
0
0
0
0
0
0
0
0
0.625182
2.81675
0
0
0
0
0
0
0
0
0
0
0
0
0
0
0
0
0
0
0
0
0
0
0
0
0
0
0
0
0
0
0
0
0
0.69093
3.08392
0
0
0
0
0
0
0
0
0
0
0
0
0
0
0
0
0
0
0
0
0
0
0
0
0
0
0
0
0
0
0
0
0
0.756566
3.35139
0
0
0
0
0
0
0
0
0
0
0
0
0
0
0
0
0
0
0
0
0
0
0
0
0
0
0
0
0
0
0
0
0
0.822335
3.61871
0
0
0
0
0
0
0
0
0
0
0
0
0
0
0
0
0
0
0
0
0
0
0
0
0
0
0
0
0
0
0
0
0
0.888107
3.88549
0
0
0
0
0
0
0
0
0
0
0
0
0
0
0
0
0
0
0
0
0
0
0
0
0
0
0
0
0
0
0
0
0
0.953746
4.15214
0
0
0
0
0
0
0
0
0
0
0
0
0
0
0
0
0
0
0
0
0
0
0
0
0
0
0
0
0
0
0
0
0
1.01939
4.41904
0
0
0
0
0
0
0
0
0
0
0
0
0
0
0
0
0
0
0
0
0
0
0
0
0
0
0
0
0
0
0
0
0
1.08517
4.68571
0
0
0
0
0
0
0
0
0
0
0
0
0
0
0
0
0
0
0
0
0
0
0
0
0
0
0
0
0
0
0
0
0
1.15094
4.95178
0
0
0
0
0
0
0
0
0
0
0
0
0
0
0
0
0
0
0
0
0
0
0
0
0
0
0
0
0
0
0
0
0
1.21658
12.8944
13.412
13.9271
14.4519
14.9746
15.4829
15.9883
16.4972
16.9978
17.4954
18.0018
18.5058
18.9954
19.4816
19.9708
20.4517
20.929
21.4145
21.8972
22.3657
22.8306
23.298
23.757
24.2123
24.675
25.1347
25.5806
26.0227
26.4669
26.9028
27.3349
27.7736
28.2094
28.6318
29.0502
0.0817831
0.0821564
0.0814492
0.0814107
0.0824849
0.0814278
0.0814437
0.0820922
0.0818293
0.0820677
0.0814762
0.081489
0.0823317
0.0815011
0.0815124
0.0820617
0.0817824
0.0820058
0.0815358
0.0815451
0.082222
0.0814161
0.0815639
0.0819751
0.0815742
0.0821702
0.0815815
0.0815884
0.0819785
0.0817843
0.0819395
0.0814985
0.0817376
0.0819762
0.0817378
0.0814996
0.0820371
0.0818992
0.0817964
0.0817413
0.163278
0.163096
0.163999
0.163798
0.162986
0.163787
0.163776
0.163603
0.162943
0.163607
0.163753
0.163866
0.162989
0.163852
0.163727
0.163369
0.163284
0.163489
0.163813
0.163705
0.163196
0.163776
0.163784
0.163295
0.163773
0.163152
0.163764
0.163675
0.16351
0.163438
0.163333
0.16369
0.163723
0.163232
0.163717
0.163664
0.16356
0.163305
0.163517
0.163699
0.245305
0.246028
0.244951
0.245344
0.245302
0.245343
0.245039
0.245308
0.245885
0.2453
0.245066
0.245305
0.245339
0.245225
0.245097
0.24575
0.245336
0.245335
0.245088
0.245337
0.24531
0.245429
0.245112
0.24569
0.245119
0.245334
0.24531
0.245158
0.245335
0.245258
0.245631
0.24515
0.245333
0.245313
0.245332
0.245166
0.245334
0.245584
0.245312
0.245194
0.327425
0.326407
0.327409
0.327118
0.327383
0.326802
0.327387
0.326798
0.327084
0.326819
0.327356
0.326768
0.327661
0.326801
0.327385
0.326565
0.327372
0.326891
0.32723
0.326957
0.328048
0.325342
0.327618
0.327167
0.327585
0.327628
0.325482
0.327615
0.327331
0.32754
0.32715
0.327503
0.325695
0.327534
0.327263
0.327509
0.327251
0.325946
0.327245
0.327488
0.408847
0.409217
0.408842
0.40823
0.408853
0.409179
0.407657
0.41033
0.407153
0.41025
0.40988
0.407543
0.409394
0.407687
0.409825
0.40769
0.409777
0.409975
0.40755
0.409912
0.406099
0.412796
0.408902
0.40717
0.408924
0.407096
0.412358
0.407157
0.409084
0.408962
0.407443
0.408935
0.410293
0.408909
0.40757
0.408924
0.409074
0.410008
0.409046
0.407563
0.489111
0.492777
0.489257
0.490289
0.492567
0.489385
0.491719
0.490165
0.492712
0.487368
0.490304
0.492548
0.487963
0.494912
0.487806
0.492363
0.49025
0.488135
0.492197
0.490304
0.492955
0.486694
0.490829
0.492339
0.488902
0.494147
0.487145
0.492237
0.490734
0.489104
0.492085
0.49077
0.490475
0.489211
0.493448
0.489286
0.489336
0.491861
0.489389
0.491804
0.57445
0.567585
0.574351
0.573933
0.568099
0.574187
0.572899
0.572608
0.572287
0.575002
0.569938
0.572287
0.574815
0.567649
0.57472
0.572281
0.570337
0.576713
0.572259
0.570479
0.572282
0.574329
0.570626
0.572286
0.574153
0.568911
0.574089
0.572282
0.572614
0.573951
0.572264
0.571003
0.572309
0.573788
0.569609
0.57376
0.573719
0.569791
0.575047
0.572272
0.650497
0.657709
0.654123
0.654128
0.65732
0.65408
0.654082
0.648566
0.65417
0.654173
0.65684
0.654128
0.654089
0.656626
0.651696
0.654124
0.656403
0.649961
0.654185
0.656262
0.654096
0.652149
0.656079
0.654127
0.654153
0.655926
0.654131
0.65408
0.651031
0.654168
0.65412
0.655737
0.654124
0.65413
0.65562
0.652647
0.654127
0.65553
0.651688
0.65414
0.742963
0.732443
0.73592
0.735967
0.732766
0.736015
0.736013
0.741518
0.735891
0.73321
0.735962
0.735967
0.733434
0.735996
0.740468
0.733568
0.735967
0.735996
0.735963
0.735966
0.733911
0.739647
0.735943
0.734033
0.735963
0.734168
0.735984
0.735986
0.73904
0.735945
0.734321
0.736043
0.735868
0.734554
0.73589
0.738664
0.734431
0.735881
0.736048
0.735884
0.810481
0.824599
0.814308
0.814506
0.823913
0.814655
0.817802
0.817472
0.814971
0.823023
0.815084
0.817802
0.820006
0.815302
0.815404
0.819816
0.815552
0.821936
0.815588
0.817825
0.819529
0.813746
0.817847
0.81945
0.817676
0.819398
0.815881
0.817898
0.817383
0.816211
0.820836
0.816095
0.817879
0.818904
0.816385
0.816232
0.819009
0.816331
0.820287
0.816376
0.902938
0.892548
0.902768
0.902604
0.893191
0.905553
0.896583
0.899304
0.902144
0.894088
0.902019
0.897033
0.901874
0.901743
0.897205
0.899333
0.901625
0.895039
0.901583
0.899717
0.899182
0.901415
0.897533
0.89938
0.897667
0.899392
0.90297
0.897759
0.899404
0.90086
0.89642
0.90092
0.898058
0.900835
0.900782
0.898146
0.89929
0.90085
0.896845
0.900666
0.981197
0.984705
0.98114
0.981136
0.984329
0.975219
0.984188
0.981107
0.981166
0.981136
0.981184
0.983593
0.976461
0.981239
0.983431
0.981223
0.981193
0.983241
0.98118
0.979184
0.979171
0.981227
0.982999
0.981162
0.983173
0.980914
0.97803
0.982722
0.981277
0.981125
0.982585
0.979659
0.982683
0.978383
0.981142
0.982598
0.981127
0.981252
0.982359
0.981247
1.0629
1.05939
1.06296
1.06296
1.05976
1.06616
1.06278
1.06012
1.0631
1.06801
1.06031
1.06304
1.06555
1.06033
1.06304
1.06301
1.0605
1.06318
1.06296
1.0649
1.06485
1.06291
1.06294
1.061
1.0631
1.06279
1.06294
1.06311
1.06279
1.06143
1.06297
1.06567
1.06151
1.06448
1.06293
1.06148
1.06307
1.06282
1.06158
1.06308
1.14115
1.15151
1.14141
1.14486
1.14744
1.14171
1.14487
1.1472
1.14478
1.13932
1.14983
1.14212
1.14222
1.1494
1.14253
1.14457
1.14672
1.14491
1.14239
1.14285
1.14651
1.14275
1.1448
1.14636
1.14476
1.14311
1.14609
1.14491
1.14307
1.14764
1.14326
1.14318
1.14601
1.14325
1.14479
1.14604
1.14476
1.14326
1.14731
1.14341
1.22968
1.21957
1.2298
1.22334
1.22934
1.22936
1.22375
1.22626
1.22373
1.23179
1.22118
1.2289
1.22877
1.22162
1.22867
1.22659
1.22642
1.22419
1.22845
1.22852
1.2245
1.22825
1.22462
1.22625
1.22471
1.23006
1.22611
1.22482
1.22809
1.22325
1.22952
1.22498
1.22625
1.22779
1.22519
1.22761
1.22514
1.22778
1.22382
1.22762
1.30821
1.3117
1.30805
1.31135
1.3022
1.30788
1.31111
1.30827
1.31089
1.30286
1.31077
1.30806
1.30806
1.31054
1.30803
1.30619
1.3079
1.30808
1.30822
1.30806
1.30634
1.30809
1.31006
1.30806
1.30993
1.30473
1.30823
1.30982
1.30795
1.30985
1.30512
1.30969
1.30807
1.30807
1.30956
1.30547
1.30951
1.30817
1.30944
1.30661
1.39005
1.38629
1.38986
1.38986
1.39327
1.38673
1.38966
1.38986
1.38703
1.39285
1.38986
1.38988
1.38734
1.39007
1.38974
1.3899
1.38991
1.39415
1.38984
1.38774
1.39192
1.38985
1.38986
1.38794
1.38987
1.39169
1.38819
1.38987
1.38988
1.38987
1.38977
1.38998
1.38987
1.38836
1.38989
1.39145
1.38987
1.38838
1.38989
1.39226
1.46803
1.47841
1.46821
1.47166
1.46847
1.47778
1.46863
1.47166
1.47417
1.47145
1.46896
1.46924
1.47644
1.46917
1.47168
1.47368
1.47179
1.46721
1.4717
1.47348
1.47167
1.46967
1.47171
1.47328
1.47167
1.46985
1.47493
1.46992
1.47178
1.47001
1.47463
1.47007
1.47168
1.47297
1.47157
1.4702
1.47025
1.47418
1.47029
1.47042
1.56045
1.54638
1.55659
1.55017
1.55957
1.54722
1.55637
1.55054
1.55601
1.55072
1.55585
1.55574
1.5509
1.5556
1.55118
1.55314
1.55347
1.55535
1.55128
1.55314
1.55347
1.55502
1.55162
1.55314
1.5516
1.55681
1.54989
1.5549
1.55177
1.55649
1.5503
1.55475
1.55191
1.55468
1.55199
1.55462
1.55458
1.55214
1.55452
1.55211
1.59456
1.59456
1.59448
1.59456
1.59456
1.59456
1.59448
1.59456
1.59456
1.59456
1.59448
1.59456
1.59456
1.59456
1.59448
1.59456
1.59456
1.59456
1.59448
1.59456
1.59456
1.59456
1.59448
1.59448
1.59456
1.59456
1.59456
1.59448
1.59456
1.59456
1.59456
1.59448
1.59456
1.59456
1.59456
1.59448
1.59456
1.59456
1.59456
1.59448
19.1875
19.1881
19.1871
19.1875
19.1727
19.1875
19.1872
19.1875
19.1881
19.1867
19.9174
19.918
19.902
19.9174
19.9163
19.9174
19.9019
19.9174
19.918
19.9013
20.6397
20.6403
20.6254
20.6397
20.6263
20.6398
20.6254
20.6398
20.6405
20.6247
21.3414
21.3421
21.3568
21.3414
21.356
21.3413
21.3569
21.3413
21.3419
21.3563
22.0501
22.0508
22.0663
22.0502
22.0526
22.0501
22.0664
22.0501
22.0508
22.0658
22.7528
22.7534
22.7543
22.7527
22.768
22.7528
22.7543
22.7528
22.7534
22.7535
23.4482
23.4489
23.4489
23.4482
23.4489
23.4482
23.4489
23.4482
23.4489
23.4482
24.1364
24.1371
24.1362
24.1364
24.123
24.1364
24.1363
24.1364
24.1371
24.1356
24.8173
24.818
24.8032
24.8173
24.8163
24.8173
24.8031
24.8173
24.818
24.8023
25.4898
25.4906
25.4769
25.4899
25.4777
25.4899
25.4768
25.49
25.4907
25.476
26.1424
26.1431
26.1567
26.1423
26.1558
26.1423
26.1567
26.1422
26.143
26.156
26.8001
26.8009
26.8152
26.8001
26.8026
26.8001
26.8152
26.8001
26.8009
26.8145
27.4512
27.452
27.4529
27.4512
27.4653
27.4512
27.4528
27.4512
27.452
27.452
28.0947
28.0955
28.0955
28.0947
28.0955
28.0947
28.0955
28.0947
28.0955
28.0947
28.7306
28.7314
28.7305
28.7306
28.7184
28.7306
28.7306
28.7306
28.7314
28.7298
29.3588
29.3597
29.346
29.3588
29.3579
29.3589
29.346
29.3588
29.3597
29.3451
30.0188
29.9793
29.9668
29.9785
29.9677
29.9786
29.9667
29.9786
29.9795
29.9659
30.9914
30.58
30.5923
30.5791
30.5915
30.5791
30.5924
30.579
30.5798
30.5916
31.9445
31.1845
31.1976
31.1837
31.1862
31.1836
31.1976
31.1836
31.1845
31.1969
32.8823
31.7823
31.7832
31.7814
31.7944
31.7815
31.7832
31.7815
31.7823
31.7822
33.8008
32.3725
32.3725
32.3716
32.3725
32.3716
32.3725
32.3716
32.3725
32.3716
34.696
32.9551
32.9542
32.9542
32.9434
32.9542
32.9542
32.9542
32.9551
32.9534
35.576
33.5301
33.5177
33.5292
33.5283
33.5292
33.5176
33.5292
33.5301
33.5167
36.4372
34.0966
34.0853
34.0957
34.0862
34.0958
34.0852
34.0958
34.0967
34.0843
37.276
34.6454
34.6565
34.6445
34.6557
34.6445
34.6566
34.6445
34.6453
34.6558
38.0965
35.1972
35.209
35.1963
35.1989
35.1963
35.2091
35.1963
35.1972
35.2083
38.9024
35.7424
35.7433
35.7415
35.7533
35.7415
35.7432
35.7415
35.7424
35.7423
39.6906
36.2803
36.2803
36.2794
36.2803
36.2794
36.2803
36.2794
36.2803
36.2794
40.4578
36.8108
36.8099
36.8099
36.8003
36.8099
36.81
36.8099
36.8108
36.8091
41.211
37.3341
37.3229
37.3332
37.3324
37.3332
37.3229
37.3332
37.3341
37.3219
41.9474
37.8493
37.8392
37.8484
37.84
37.8484
37.8391
37.8485
37.8494
37.8382
42.664
38.3484
38.3583
38.3474
38.3575
38.3474
38.3584
38.3473
38.3483
38.3575
43.3645
38.8495
38.8602
38.8486
38.8513
38.8486
38.8603
38.8486
38.8495
38.8594
44.052
39.3446
39.3455
39.3437
39.3543
39.3437
39.3455
39.3437
39.3446
39.3445
44.7242
39.5896
39.5896
39.5919
39.592
39.592
39.5891
39.5891
39.5891
39.5891
2.03601
2.06191
2.03595
2.0629
2.03588
2.03583
2.06298
2.03578
2.06236
11.9088
4.09263
4.06684
4.09269
4.09438
4.09276
4.09281
4.0943
4.09287
4.06639
13.1629
6.11413
6.11317
6.11403
6.13987
6.11398
6.11393
6.14006
6.11389
6.11317
14.404
8.1448
8.14576
8.1449
8.11931
8.14496
8.145
8.11912
8.14505
8.14576
15.6263
10.1311
10.1561
10.131
10.1293
10.1309
10.1309
10.1294
10.1308
10.1566
16.8341
12.1167
12.0921
12.1168
12.0911
12.1169
12.1169
12.091
12.117
12.0916
18.0321
14.0491
14.0491
14.0491
14.0491
14.0491
14.0491
14.0491
14.0491
14.0491
19.2137
15.9494
15.9731
15.9493
15.9741
15.9492
15.9492
15.9742
15.9491
15.9736
20.3736
17.8375
17.8143
17.8376
17.8393
17.8377
17.8377
17.8392
17.8378
17.8138
21.5214
19.6648
19.6638
19.6647
19.6876
19.6646
19.6646
19.6878
19.6645
19.6638
22.6512
21.4724
21.4734
21.4725
21.4502
21.4726
21.4726
21.45
21.4727
21.4734
23.758
23.2158
23.2373
23.2157
23.214
23.2157
23.2156
23.2141
23.2156
23.2377
24.8463
24.9347
24.9139
24.9348
24.9129
24.9349
24.9349
24.9128
24.935
24.9135
25.9204
26.5868
26.5868
26.5868
26.5868
26.5868
26.5868
26.5868
26.5868
26.5868
26.9753
28.1927
28.2122
28.1926
28.2132
28.1925
28.1925
28.2132
28.1924
28.2126
28.1924
29.7705
29.7516
29.7706
29.7723
29.7706
29.7707
29.7722
29.7707
29.7512
29.7708
31.2829
31.2819
31.2828
31.3012
31.2827
31.2827
31.3014
31.2826
31.2819
31.2826
32.7648
32.7658
32.7649
32.7472
32.765
32.765
32.747
32.7651
32.7658
32.7651
34.1831
34.2
34.1831
34.1814
34.183
34.183
34.1815
34.1829
34.2005
34.1829
35.5706
35.5544
35.5707
35.5534
35.5708
35.5708
35.5533
35.5709
35.554
35.5709
36.896
36.896
36.896
36.896
36.896
36.896
36.896
36.896
36.896
36.896
38.177
38.192
38.177
38.193
38.1769
38.1768
38.1931
38.1768
38.1925
38.1768
39.4289
39.4145
39.4289
39.4306
39.429
39.4291
39.4306
39.4291
39.4141
39.4292
40.6244
40.6235
40.6243
40.6383
40.6243
40.6242
40.6385
40.6242
40.6235
40.6241
41.791
41.7919
41.7911
41.7776
41.7911
41.7912
41.7774
41.7912
41.7919
41.7913
42.9048
42.9174
42.9047
42.903
42.9047
42.9046
42.9031
42.9046
42.9179
42.9045
43.991
43.9789
43.9911
43.9779
43.9911
43.9912
43.9778
43.9912
43.9785
43.9913
45.0272
45.0272
45.0272
45.0272
45.0272
45.0272
45.0272
45.0272
45.0272
45.0272
46.0273
46.0384
46.0272
46.0394
46.0272
46.0271
46.0395
46.0271
46.0388
46.027
47.0031
46.9925
47.0031
47.0048
47.0032
47.0032
47.0047
47.0033
46.992
47.0033
47.9352
47.9342
47.9351
47.9455
47.9351
47.935
47.9456
47.935
47.9342
47.9349
48.8437
48.8446
48.8438
48.8338
48.8438
48.8439
48.8337
48.8439
48.8446
48.844
49.712
49.7212
49.7119
49.7102
49.7119
49.7118
49.7103
49.7117
49.7217
49.7117
50.5583
50.5495
50.5583
50.5485
50.5584
50.5585
50.5484
50.5585
50.549
50.5586
50.9637
50.9637
50.9637
50.9637
50.9665
50.9665
50.9637
50.9637
50.9637
50.9636
0
0
0
0
0
0
0
0
0
0
0
0
0
0
0.0269479
0
0
0
0
0
0
0
0
0
0
0
0
0
0
0.0280008
0
0
0
0
0
0
0
0
0
0
0
0
0
0
0.0283034
0
0
0
0
0
0
0
0
0
0
0
0
0
0
0.0294328
0
0
0
0
0
0
0
0
0
0
0
0
0
0
0.0297756
0
0
0
0
0
0
0
0
0
0
0
0
0
0
0.0305545
0
0
0
0
0
0
0
0
0
0
0
0
0
0
0.0318156
0
0
0
0
0
0
0
0
0
0
0
0
0
0
0.0322302
0
0
0
0
0
0
0
0
0
0
0
0
0
0
0.0335931
0
0
0
0
0
0
0
0
0
0
0
0
0
0
0.0340654
)
;

boundaryField
{
    inlet_one
    {
        type            calculated;
        value           uniform 0;
    }
    inlet_two
    {
        type            calculated;
        value           uniform 0;
    }
    outlet
    {
        type            calculated;
        value           uniform 0;
    }
    walls
    {
        type            calculated;
        value           uniform 0;
    }
    front
    {
        type            wedge;
    }
    back
    {
        type            wedge;
    }
}


// ************************************************************************* //
