/*--------------------------------*- C++ -*----------------------------------*\
| =========                 |                                                 |
| \\      /  F ield         | OpenFOAM: The Open Source CFD Toolbox           |
|  \\    /   O peration     | Version:  plus                                  |
|   \\  /    A nd           | Web:      www.OpenFOAM.com                      |
|    \\/     M anipulation  |                                                 |
\*---------------------------------------------------------------------------*/
FoamFile
{
    version     2.0;
    format      ascii;
    class       volScalarField;
    location    "0";
    object      skewness;
}
// * * * * * * * * * * * * * * * * * * * * * * * * * * * * * * * * * * * * * //

dimensions      [0 0 0 0 0 0 0];


internalField   nonuniform List<scalar> 
2650
(
11.9987
11.0503
10.1568
9.31149
8.51518
7.76613
7.06219
6.4015
5.78453
5.20838
4.67183
4.17345
3.71252
3.28689
2.89518
0.061921
0.0600369
0.0580886
0.0560755
0.0540044
0.0518767
0.049704
0.0474861
0.0452398
0.0429743
0.0407018
0.0384377
0.0361973
0.0339982
0.0318594
0.0421823
0.0257664
0.0248359
0.0239043
0.0229756
0.0220545
0.021146
0.0202542
0.019387
0.0185452
0.0177255
0.0169484
0.0162205
0.0155489
0.0176135
0.0586741
0.0132802
0.012889
0.0125117
0.0121471
0.0117965
0.0114671
0.0111616
0.0108825
0.0106329
0.0104157
0.0102339
0.0100906
0.0099891
0.0244979
0.0752344
0.00762904
0.00754384
0.00747225
0.00741601
0.00737635
0.00735459
0.00735168
0.00736921
0.00740867
0.00747204
0.00756124
0.007678
0.00782492
0.0314107
0.0918274
0.00512694
0.0052092
0.00530189
0.00540521
0.00552006
0.00564755
0.00578873
0.00594425
0.00611565
0.00630408
0.00651217
0.00674079
0.00699251
0.0383348
0.108438
0.00460751
0.00473862
0.00487352
0.00502805
0.0051802
0.00534656
0.0055237
0.00571685
0.00591558
0.00613314
0.00636757
0.00662374
0.00689876
0.0452621
0.125073
0.00472322
0.00483677
0.0049596
0.00509205
0.005235
0.00538947
0.00555602
0.00573615
0.00593095
0.00614176
0.00637226
0.00662374
0.00689344
0.0521907
0.1417
0.00568239
0.00571484
0.00575974
0.00581813
0.00589049
0.0059781
0.00608192
0.00620276
0.00634237
0.00650177
0.00668262
0.0068873
0.00711712
0.0591197
0.158321
0.00724068
0.00715736
0.00708998
0.00703951
0.00700745
0.00699459
0.00700278
0.00703243
0.00708513
0.0071631
0.00726744
0.00740058
0.00756434
0.0660518
0.174957
0.00922389
0.00900492
0.0088051
0.00862514
0.00846681
0.00833118
0.00822059
0.00813674
0.00808112
0.0080562
0.00806302
0.008104
0.00818214
0.0729764
0.191596
0.0115344
0.0111754
0.0108326
0.0105057
0.0102042
0.00993028
0.00968452
0.00946988
0.00928819
0.0091424
0.00903448
0.0089676
0.00894357
0.0798913
0.208249
0.0141268
0.0136115
0.0131156
0.0126426
0.0121908
0.011763
0.0113668
0.0110057
0.0106843
0.0104026
0.0101641
0.00997368
0.00983323
0.0868121
0.224903
0.0169851
0.0163035
0.0156413
0.0150038
0.0143931
0.0138114
0.0132529
0.0127335
0.0122545
0.0118228
0.0114427
0.011115
0.010844
0.0937284
0.241533
0.0200955
0.0192441
0.0184102
0.0175961
0.0168085
0.0160523
0.0153325
0.0146433
0.0139973
0.0134033
0.012864
0.0123851
0.0119724
0.100629
0.258165
0.0234631
0.0224302
0.0214137
0.0204152
0.0194415
0.0184993
0.0175966
0.0167361
0.0159134
0.0151405
0.014431
0.0137882
0.0132163
0.107522
0.274809
0.0270903
0.0258722
0.0246613
0.0234669
0.0222968
0.0211591
0.020057
0.0190001
0.0179966
0.017041
0.016144
0.0153196
0.0145795
0.114419
0.291467
0.030991
0.0295733
0.0281621
0.0267649
0.0253829
0.0240341
0.0227221
0.0214569
0.0202456
0.0190994
0.0180035
0.016989
0.0160637
0.12131
0.308125
0.0351773
0.0335552
0.0319336
0.0303123
0.0287106
0.027139
0.025601
0.0241111
0.0226806
0.0213149
0.0200254
0.0187989
0.0176706
0.128183
0.324771
0.0396689
0.03783
0.0359798
0.0341321
0.0323009
0.0304907
0.0287132
0.0269815
0.0253093
0.0237086
0.0221925
0.0207584
0.0194137
0.135051
1.34242e+13
9.99047e+145
1.34242e+13
1.34242e+13
1.34242e+13
1.34274e+13
1.34242e+13
9.99047e+145
1.34274e+13
1.34242e+13
1.34242e+13
1.34242e+13
9.99047e+145
1.34242e+13
1.34242e+13
9.99047e+145
9.99047e+145
1.34242e+13
1.34242e+13
1.34274e+13
1.34242e+13
1.34242e+13
1.34274e+13
1.34242e+13
1.34242e+13
9.99047e+145
1.34274e+13
9.99047e+145
1.34242e+13
1.34274e+13
1.34242e+13
1.34242e+13
1.34242e+13
1.34274e+13
6.71211e+12
0.105192
0.105192
0.105192
0.105192
0.105192
0.105192
0.105192
0.105192
0.105192
0.105192
0.105192
0.105192
0.105192
0.105192
0.105192
0.105192
0.105192
0.105192
0.105192
0.105192
0.105192
0.105192
0.105192
0.105192
0.105192
0.105192
0.105192
0.105192
0.105192
0.105192
0.105192
0.105192
0.105192
0.105192
0.105192
0.0570267
0.0570267
0.0570267
0.0570267
0.0570267
0.0570267
0.0570267
0.0570267
0.0570267
0.0570267
0.0570267
0.0570267
0.0570267
0.0570267
0.0570267
0.0570267
0.0570267
0.0570267
0.0570267
0.0570267
0.0570267
0.0570267
0.0570267
0.0570267
0.0570267
0.0570267
0.0570267
0.0570267
0.0570267
0.0570267
0.0570267
0.0570267
0.0570267
0.0570267
0.0570267
0.0342099
0.0342099
0.0342099
0.0342099
0.0342099
0.0342099
0.0342099
0.0342099
0.0342099
0.0342099
0.0342099
0.0342099
0.0342099
0.0342099
0.0342099
0.0342099
0.0342099
0.0342099
0.0342099
0.0342099
0.0342099
0.0342099
0.0342099
0.0342099
0.0342099
0.0342099
0.0342099
0.0342099
0.0342099
0.0342099
0.0342099
0.0342099
0.0342099
0.0342099
0.0342099
0.0314107
0.0198427
0.0198427
0.0198427
0.0198427
0.0198427
0.0198427
0.0198427
0.0198427
0.0198427
0.0198427
0.0198427
0.0198427
0.0198427
0.0198427
0.0198427
0.0198427
0.0198427
0.0198427
0.0198427
0.0198427
0.0198427
0.0198427
0.0198427
0.0198427
0.0198427
0.0198427
0.0198427
0.0198427
0.0198427
0.0198427
0.0198427
0.0198427
0.0198427
0.0198427
0.0383348
0.0093162
0.0093162
0.0093162
0.0093162
0.0093162
0.0093162
0.0093162
0.0093162
0.0093162
0.0093162
0.0093162
0.0093162
0.0093162
0.0093162
0.0093162
0.0093162
0.0093162
0.0093162
0.0093162
0.0093162
0.0093162
0.0093162
0.0093162
0.0093162
0.0093162
0.0093162
0.0093162
0.0093162
0.0093162
0.0093162
0.0093162
0.0093162
0.0093162
0.0093162
0.0452621
0.000857715
0.000857715
0.000857715
0.000857715
0.000857715
0.000857715
0.000857715
0.000857715
0.000857715
0.000857715
0.000857715
0.000857715
0.000857715
0.000857715
0.000857715
0.000857715
0.000857715
0.000857715
0.000857715
0.000857715
0.000857715
0.000857715
0.000857715
0.000857715
0.000857715
0.000857715
0.000857715
0.000857715
0.000857715
0.000857715
0.000857715
0.000857715
0.000857715
0.00731913
0.0521907
0.0063588
0.0063588
0.0063588
0.0063588
0.0063588
0.0063588
0.0063588
0.0063588
0.0063588
0.0063588
0.0063588
0.0063588
0.0063588
0.0063588
0.0063588
0.0063588
0.0063588
0.0063588
0.0063588
0.0063588
0.0063588
0.0063588
0.0063588
0.0063588
0.0063588
0.0063588
0.0063588
0.0063588
0.0063588
0.0063588
0.0063588
0.0063588
0.0063588
0.00844078
0.0591197
0.0127733
0.0127733
0.0127733
0.0127733
0.0127733
0.0127733
0.0127733
0.0127733
0.0127733
0.0127733
0.0127733
0.0127733
0.0127733
0.0127733
0.0127733
0.0127733
0.0127733
0.0127733
0.0127733
0.0127733
0.0127733
0.0127733
0.0127733
0.0127733
0.0127733
0.0127733
0.0127733
0.0127733
0.0127733
0.0127733
0.0127733
0.0127733
0.0127733
0.0127733
0.0660518
0.0186434
0.0186434
0.0186434
0.0186434
0.0186434
0.0186434
0.0186434
0.0186434
0.0186434
0.0186434
0.0186434
0.0186434
0.0186434
0.0186434
0.0186434
0.0186434
0.0186434
0.0186434
0.0186434
0.0186434
0.0186434
0.0186434
0.0186434
0.0186434
0.0186434
0.0186434
0.0186434
0.0186434
0.0186434
0.0186434
0.0186434
0.0186434
0.0186434
0.0186434
0.0729764
0.0241114
0.0241114
0.0241114
0.0241114
0.0241114
0.0241114
0.0241114
0.0241114
0.0241114
0.0241114
0.0241114
0.0241114
0.0241114
0.0241114
0.0241114
0.0241114
0.0241114
0.0241114
0.0241114
0.0241114
0.0241114
0.0241114
0.0241114
0.0241114
0.0241114
0.0241114
0.0241114
0.0241114
0.0241114
0.0241114
0.0241114
0.0241114
0.0241114
0.0241114
0.0798913
0.0292941
0.0292941
0.0292941
0.0292941
0.0292941
0.0292941
0.0292941
0.0292941
0.0292941
0.0292941
0.0292941
0.0292941
0.0292941
0.0292941
0.0292941
0.0292941
0.0292941
0.0292941
0.0292941
0.0292941
0.0292941
0.0292941
0.0292941
0.0292941
0.0292941
0.0292941
0.0292941
0.0292941
0.0292941
0.0292941
0.0292941
0.0292941
0.0292941
0.0292941
0.0868121
0.0342629
0.0342629
0.0342629
0.0342629
0.0342629
0.0342629
0.0342629
0.0342629
0.0342629
0.0342629
0.0342629
0.0342629
0.0342629
0.0342629
0.0342629
0.0342629
0.0342629
0.0342629
0.0342629
0.0342629
0.0342629
0.0342629
0.0342629
0.0342629
0.0342629
0.0342629
0.0342629
0.0342629
0.0342629
0.0342629
0.0342629
0.0342629
0.0342629
0.0342629
0.0937284
0.0390474
0.0390474
0.0390474
0.0390474
0.0390474
0.0390474
0.0390474
0.0390474
0.0390474
0.0390474
0.0390474
0.0390474
0.0390474
0.0390474
0.0390474
0.0390474
0.0390474
0.0390474
0.0390474
0.0390474
0.0390474
0.0390474
0.0390474
0.0390474
0.0390474
0.0390474
0.0390474
0.0390474
0.0390474
0.0390474
0.0390474
0.0390474
0.0390474
0.0390474
0.100629
0.0437024
0.0437024
0.0437024
0.0437024
0.0437024
0.0437024
0.0437024
0.0437024
0.0437024
0.0437024
0.0437024
0.0437024
0.0437024
0.0437024
0.0437024
0.0437024
0.0437024
0.0437024
0.0437024
0.0437024
0.0437024
0.0437024
0.0437024
0.0437024
0.0437024
0.0437024
0.0437024
0.0437024
0.0437024
0.0437024
0.0437024
0.0437024
0.0437024
0.0437024
0.107522
0.0482515
0.0482515
0.0482515
0.0482515
0.0482515
0.0482515
0.0482515
0.0482515
0.0482515
0.0482515
0.0482515
0.0482515
0.0482515
0.0482515
0.0482515
0.0482515
0.0482515
0.0482515
0.0482515
0.0482515
0.0482515
0.0482515
0.0482515
0.0482515
0.0482515
0.0482515
0.0482515
0.0482515
0.0482515
0.0482515
0.0482515
0.0482515
0.0482515
0.0482515
0.114419
0.0527045
0.0527045
0.0527045
0.0527045
0.0527045
0.0527045
0.0527045
0.0527045
0.0527045
0.0527045
0.0527045
0.0527045
0.0527045
0.0527045
0.0527045
0.0527045
0.0527045
0.0527045
0.0527045
0.0527045
0.0527045
0.0527045
0.0527045
0.0527045
0.0527045
0.0527045
0.0527045
0.0527045
0.0527045
0.0527045
0.0527045
0.0527045
0.0527045
0.0527045
0.12131
0.0570852
0.0570852
0.0570852
0.0570852
0.0570852
0.0570852
0.0570852
0.0570852
0.0570852
0.0570852
0.0570852
0.0570852
0.0570852
0.0570852
0.0570852
0.0570852
0.0570852
0.0570852
0.0570852
0.0570852
0.0570852
0.0570852
0.0570852
0.0570852
0.0570852
0.0570852
0.0570852
0.0570852
0.0570852
0.0570852
0.0570852
0.0570852
0.0570852
0.0570852
0.128183
0.0614043
0.0614043
0.0614043
0.0614043
0.0614043
0.0614043
0.0614043
0.0614043
0.0614043
0.0614043
0.0614043
0.0614043
0.0614043
0.0614043
0.0614043
0.0614043
0.0614043
0.0614043
0.0614043
0.0614043
0.0614043
0.0614043
0.0614043
0.0614043
0.0614043
0.0614043
0.0614043
0.0614043
0.0614043
0.0614043
0.0614043
0.0614043
0.0614043
0.0614043
0.135051
0.0826772
0.0859585
0.0893367
0.0927171
0.0960423
0.0993203
0.102661
0.105988
0.109264
0.112642
0.116023
0.119354
0.122626
0.125966
0.1293
0.13257
0.135947
0.139328
0.142665
0.145931
0.149272
0.152611
0.155875
0.159252
0.162634
0.165976
0.169237
0.172577
0.175922
0.179181
0.182558
0.185939
0.189287
0.192542
2.41128
2.53297
2.65775
2.78692
2.92092
3.05793
3.19983
3.34673
3.49682
3.65249
3.81136
3.9756
4.14532
4.31807
4.4965
4.68091
4.86791
5.06211
5.25928
5.46265
5.67232
5.88518
6.10402
6.32977
6.55837
6.79517
7.03474
7.2814
7.5356
7.7918
8.05737
8.32406
8.60329
8.88303
9.17314
9.4631
9.76969
10.0743
10.3848
10.7067
0.0253699
0.0262119
0.027065
0.0279266
0.0287946
0.0296685
0.0305491
0.0314359
0.0323287
0.0332249
0.0341252
0.0350281
0.0359333
0.0368399
0.0377469
0.0386545
0.03956
0.0404649
0.0413674
0.0422671
0.0431635
0.0440638
0.0449439
0.0458271
0.0467049
0.0475767
0.0484426
0.0493013
0.0501538
0.0509975
0.0518342
0.0526594
0.0534862
0.05429
0.0551003
0.0558861
0.0566777
0.0574529
0.0582107
0.0589736
0.00998315
0.0102582
0.0105394
0.0108297
0.0111254
0.0114298
0.0117399
0.0120556
0.0123794
0.0127068
0.0130424
0.0133809
0.013727
0.0140754
0.0144312
0.0147884
0.0151525
0.0155189
0.0158872
0.0162603
0.016633
0.0170135
0.0173899
0.0177733
0.0181552
0.0185423
0.0189273
0.0193173
0.0197063
0.0200942
0.0204865
0.0208751
0.021268
0.0216567
0.0220493
0.0224372
0.0228287
0.023217
0.0236022
0.0239907
0.00541354
0.00549474
0.00558048
0.00567071
0.00576521
0.00586413
0.00596722
0.00607422
0.00618552
0.00630043
0.00641948
0.00654185
0.0066683
0.00679801
0.00693119
0.00706749
0.00720765
0.00735069
0.00749639
0.00764574
0.00779723
0.00795226
0.00810915
0.00826951
0.00843145
0.00859661
0.00876311
0.0089328
0.00910414
0.00927731
0.00945242
0.00962878
0.00980794
0.00998705
0.0101684
0.0103499
0.010534
0.0107188
0.0109038
0.0125728
0.00507837
0.00362379
0.00362596
0.00363046
0.00363784
0.00364743
0.00365962
0.00367435
0.00369121
0.0037106
0.00373204
0.0037558
0.00378184
0.00380983
0.00384016
0.00387232
0.00390659
0.00394276
0.00398087
0.00402092
0.00406287
0.00410649
0.00415178
0.00419909
0.00424814
0.00429886
0.0043509
0.00440456
0.00446
0.00451718
0.00457559
0.00463562
0.0046967
0.00475902
0.00482322
0.00488852
0.00495532
0.00502291
0.00509153
0.0161233
0.00619862
0.00287757
0.00284412
0.00281192
0.00278172
0.00275271
0.00272536
0.00269968
0.00267502
0.00265208
0.00263005
0.00260972
0.00259061
0.00257239
0.00255567
0.0025398
0.00252534
0.0025118
0.00249936
0.00248809
0.00247751
0.00246815
0.00245992
0.0024525
0.00244577
0.00244007
0.00243549
0.00243158
0.00242859
0.00242636
0.00242501
0.00242427
0.00242448
0.00242574
0.00242732
0.00242983
0.00243306
0.00243709
0.00244192
0.0196754
0.00731913
0.00270605
0.00265864
0.0026176
0.00258072
0.00253738
0.00250136
0.00246643
0.00242945
0.0023909
0.0023618
0.0023278
0.0022918
0.00226512
0.00223079
0.00220461
0.00217683
0.00214757
0.00212066
0.00209486
0.00206795
0.00204311
0.00201798
0.00199396
0.00196644
0.00194741
0.00192508
0.00190286
0.00188151
0.00185678
0.00183989
0.00181983
0.00180037
0.00177757
0.00176244
0.00174047
0.00172235
0.00171134
0.00169056
0.0232315
0.00844078
0.00276449
0.00272558
0.00268767
0.00265159
0.00261655
0.00258297
0.00255082
0.00251959
0.00248957
0.00246118
0.00243347
0.00240704
0.00238148
0.00235702
0.00233361
0.00231097
0.00228928
0.00226839
0.00224855
0.00222964
0.00221124
0.00219396
0.00217721
0.00216125
0.00214613
0.0021317
0.00211799
0.00210478
0.0020923
0.00208058
0.00206943
0.00205907
0.00204896
0.00203982
0.00203125
0.00202299
0.00201551
0.00200852
0.0267968
0.00956194
0.00304772
0.00302322
0.00300032
0.00297952
0.00296035
0.00294306
0.00292789
0.00291419
0.0029019
0.00289151
0.00288241
0.00287493
0.00286903
0.0028646
0.00286176
0.00286002
0.00285984
0.00286121
0.00286354
0.00286722
0.00287243
0.00287877
0.0028862
0.00289489
0.00290463
0.00291572
0.0029278
0.00294147
0.00295627
0.00297167
0.00298815
0.00300572
0.00302424
0.00304382
0.00306464
0.00308638
0.00310885
0.00313253
0.0303636
0.0106856
0.00349439
0.00349159
0.00349118
0.00349355
0.00349819
0.00350514
0.00351448
0.00352592
0.00354
0.00355627
0.00357441
0.00359497
0.00361762
0.00364176
0.00366822
0.00369683
0.00372746
0.00375996
0.00379406
0.00383031
0.00386799
0.00390721
0.00394876
0.00399196
0.00403688
0.00408338
0.00413124
0.00418065
0.00423152
0.00428433
0.00433857
0.00439415
0.00445095
0.00450983
0.00456849
0.00462981
0.00469194
0.00475505
0.0339312
0.0118095
0.00406729
0.00409144
0.00411938
0.00414998
0.00418373
0.00422074
0.00426057
0.00430362
0.00434926
0.00439783
0.00444941
0.00450344
0.00456053
0.00462023
0.00468224
0.00474714
0.00481416
0.00488367
0.00495585
0.00503012
0.00510707
0.00518615
0.00526717
0.0053505
0.00543514
0.00552337
0.00561234
0.0057043
0.00579703
0.0058923
0.00598934
0.00608817
0.00618822
0.00629047
0.00639413
0.00649903
0.00660724
0.00671267
0.0374925
0.0129312
0.00474502
0.00480073
0.00486025
0.00492403
0.00499124
0.00506239
0.00513743
0.00521582
0.00529815
0.00538392
0.00547327
0.00556553
0.00566072
0.0057599
0.00586228
0.00596728
0.00607616
0.00618691
0.00630115
0.00641862
0.00653725
0.00666052
0.00678451
0.00691398
0.00704203
0.00717517
0.00730944
0.0074465
0.00758506
0.00772456
0.00786968
0.00801473
0.00816119
0.00830874
0.00845924
0.0086111
0.00876346
0.00891666
0.0410545
0.0140552
0.00551454
0.00560503
0.00570019
0.00580001
0.00590488
0.00601411
0.00612739
0.00624509
0.00636748
0.00649384
0.00662426
0.00675797
0.00689685
0.00703914
0.00718353
0.00733264
0.00748692
0.00764065
0.00780075
0.0079642
0.00812953
0.00830045
0.00846913
0.00864534
0.00882202
0.00899992
0.00918537
0.00936644
0.00955535
0.00974387
0.00993288
0.0101278
0.0103219
0.0105179
0.0107146
0.0109132
0.0111117
0.011314
0.044624
0.0151793
0.00636677
0.00649559
0.00662952
0.00676935
0.00691454
0.00706475
0.00721945
0.00738022
0.00754517
0.00771338
0.00788969
0.0080681
0.00825215
0.00844016
0.00863125
0.00882795
0.00902809
0.00923074
0.00944051
0.00964798
0.00986182
0.0100821
0.0102996
0.0105234
0.0107529
0.0109786
0.0112132
0.0114455
0.0116783
0.0119189
0.0121568
0.0123947
0.012641
0.0128847
0.0131312
0.0133773
0.0136265
0.0138766
0.0481935
0.0163012
0.0072968
0.00746628
0.00764268
0.0078248
0.00801173
0.00820753
0.00840688
0.00861017
0.00882327
0.00903868
0.00926018
0.00948542
0.00971858
0.00995381
0.0101952
0.01044
0.0106881
0.0109425
0.0112009
0.0114606
0.0117249
0.011997
0.0122639
0.0125372
0.0128166
0.0130952
0.0133726
0.0136597
0.0139444
0.0142282
0.0145214
0.0148106
0.0151047
0.015399
0.015692
0.0159875
0.0162901
0.0165816
0.0517561
0.0174229
0.00830092
0.0085141
0.00873452
0.00896304
0.00919385
0.00943456
0.00968377
0.00993682
0.0101958
0.0104582
0.0107317
0.011007
0.0112894
0.0115736
0.0118676
0.0121627
0.0124646
0.0127701
0.0130779
0.0133906
0.0137064
0.0140297
0.0143473
0.0146726
0.0149996
0.0153332
0.0156613
0.0159964
0.0163375
0.0166738
0.0170147
0.0173526
0.0176987
0.0180412
0.018386
0.0187266
0.0190766
0.019421
0.0553192
0.0185471
0.00937733
0.00963602
0.00990256
0.0101798
0.0104619
0.0107484
0.0110444
0.0113471
0.01166
0.0119758
0.0122981
0.012623
0.0129595
0.0132976
0.0136425
0.013993
0.0143477
0.0147057
0.0150664
0.0154317
0.0158006
0.0161767
0.0165461
0.0169235
0.0173045
0.017692
0.0180751
0.0184626
0.0188465
0.0192372
0.0196333
0.0200233
0.0204169
0.0208054
0.0212044
0.021597
0.0219901
0.022383
0.0588821
0.0196711
0.0105226
0.0108304
0.0111461
0.0114701
0.0118059
0.0121465
0.0124913
0.0128473
0.0132101
0.0135791
0.0139579
0.0143399
0.0147285
0.0151225
0.0155188
0.0159273
0.0163318
0.0167418
0.017158
0.017578
0.0180005
0.0184314
0.0188559
0.0192882
0.0197221
0.0201592
0.0205979
0.0210419
0.0214809
0.0219249
0.0223635
0.0228062
0.0232555
0.0236978
0.0241404
0.0245826
0.0250266
0.0254632
0.0624529
0.020793
0.0117373
0.0120953
0.0124632
0.0128404
0.0132253
0.0136221
0.0140241
0.0144337
0.0148511
0.0152729
0.015706
0.0161435
0.0165876
0.0170423
0.0174943
0.0179523
0.0184162
0.0188844
0.0193556
0.0198306
0.0203102
0.0207982
0.0212765
0.021763
0.0222529
0.0227429
0.0232348
0.0237287
0.0242237
0.0247225
0.0252155
0.0257107
0.0262044
0.0266984
0.0271869
0.0276805
0.0281749
0.0286614
0.0660304
0.0219167
0.0130207
0.0134324
0.0138544
0.014285
0.0147253
0.0151753
0.0156342
0.0161001
0.0165783
0.0170603
0.0175491
0.0180447
0.0185445
0.0190508
0.0195626
0.0200783
0.0205988
0.0211249
0.0216548
0.022187
0.0227231
0.0232629
0.0238033
0.0243473
0.0248911
0.0254368
0.0259843
0.0265327
0.0270793
0.0276266
0.0281742
0.0287215
0.0292656
0.0298149
0.030356
0.0308955
0.0314327
0.0319676
0.0695938
0.387028
0.391121
0.395168
0.399162
0.40308
0.40699
0.410907
0.414713
0.418489
0.422116
0.0936281
0.058584
0.0541192
0.0495752
0.0449594
0.0402459
0.0354364
0.0305123
0.0254801
0.0826772
0.0869757
0.0585298
0.0540612
0.0495161
0.0449027
0.0401882
0.0353803
0.0304613
0.0254402
0.0859585
0.0802449
0.0584824
0.0540074
0.0494651
0.0448462
0.0401357
0.0353276
0.0304169
0.0254086
0.0893367
0.0735625
0.0584342
0.05396
0.0494147
0.0447993
0.0400878
0.0352834
0.0303792
0.0253821
0.0927171
0.066906
0.0583918
0.053919
0.0493714
0.0447526
0.0400434
0.0352445
0.030347
0.0253631
0.0960423
0.0627588
0.0583533
0.0538778
0.0493301
0.0447152
0.0400069
0.0352113
0.0303211
0.0253509
0.0993203
0.0627254
0.0583187
0.0538424
0.0492945
0.0446811
0.0399743
0.0351831
0.0303013
0.0253444
0.102661
0.0626957
0.058288
0.0538136
0.0492646
0.0446489
0.0399453
0.0351606
0.0302875
0.0253431
0.105988
0.0626697
0.0582613
0.0537846
0.0492365
0.0446254
0.0399243
0.0351439
0.0302798
0.0253485
0.109264
0.0626489
0.0582409
0.0537604
0.0492163
0.0446027
0.0399071
0.0351309
0.0302775
0.0253613
0.112642
0.062629
0.0582197
0.053742
0.0491965
0.0445885
0.0398949
0.035126
0.0302822
0.0253785
0.116023
0.0626138
0.0582044
0.0537294
0.0491842
0.0445753
0.0398859
0.0351249
0.0302922
0.0254034
0.119354
0.0626023
0.0581929
0.0537167
0.0491733
0.0445703
0.039885
0.0351299
0.0303082
0.0254348
0.122626
0.0625944
0.0581853
0.0537099
0.0491682
0.0445681
0.0398876
0.0351399
0.03033
0.0254726
0.125966
0.0625901
0.0581814
0.0537092
0.049169
0.0445688
0.0398934
0.0351546
0.0303557
0.0255169
0.1293
0.0625894
0.0581815
0.0537084
0.0491709
0.0445774
0.0399075
0.0351756
0.0303866
0.0255675
0.13257
0.0625933
0.0581875
0.0537133
0.0491804
0.0445874
0.0399243
0.0352007
0.030422
0.0256253
0.135947
0.0625987
0.0581927
0.0537232
0.0491905
0.0446051
0.0399468
0.0352337
0.0304648
0.0256865
0.139328
0.0626088
0.0582041
0.0537385
0.0492086
0.0446245
0.039972
0.0352692
0.030513
0.0257563
0.142665
0.0626224
0.0582193
0.0537537
0.0492275
0.0446512
0.0400061
0.0353116
0.0305671
0.0258324
0.145931
0.0626397
0.0582382
0.0537752
0.0492524
0.0446804
0.0400431
0.035359
0.030627
0.025915
0.149272
0.0626606
0.0582611
0.0538024
0.0492835
0.0447136
0.0400831
0.0354102
0.0306927
0.0260041
0.152611
0.0626851
0.0582877
0.0538294
0.0493152
0.0447539
0.0401321
0.0354668
0.0307643
0.0260997
0.155875
0.0627137
0.05832
0.0538632
0.0493544
0.0447965
0.0401827
0.035527
0.03084
0.0262024
0.159252
0.0662661
0.0583516
0.0539014
0.0493942
0.0448459
0.0402397
0.0355952
0.0309231
0.0263079
0.162634
0.072919
0.0583896
0.0539446
0.0494426
0.0448978
0.0402993
0.0356651
0.0310122
0.026423
0.165976
0.0795758
0.0584315
0.0539878
0.0494914
0.0449564
0.0403683
0.0357421
0.0311074
0.0265448
0.169237
0.0861529
0.0584772
0.0540376
0.0495465
0.0450172
0.0404403
0.0358246
0.0312085
0.0266734
0.172577
0.0928053
0.0585269
0.0540929
0.0496082
0.0450832
0.0405149
0.0359105
0.0313158
0.0268088
0.175922
0.0994625
0.0585804
0.0541482
0.0496699
0.0451556
0.0405993
0.0360037
0.0314291
0.026951
0.179181
0.106137
0.0586393
0.0542112
0.0497392
0.0452313
0.0406837
0.0361022
0.0315465
0.0271008
0.182558
0.112876
0.0586976
0.0542781
0.0498093
0.0453131
0.0407734
0.0362097
0.0316714
0.0272528
0.185939
0.119527
0.0587627
0.0543497
0.0498888
0.0453984
0.0408655
0.0363178
0.0318032
0.0274161
0.189287
0.629271
0.63602
0.642704
0.649315
0.655881
0.662244
0.6687
0.675
0.681224
0.687231
0.10609
0.105928
0.105754
0.105553
0.10536
0.105137
0.104894
0.104628
0.104336
0.104015
0.10609
0.105928
0.105754
0.105553
0.10536
0.105137
0.104894
0.104628
0.104336
0.104015
0.10609
0.105929
0.105754
0.105554
0.105361
0.105138
0.104894
0.104628
0.104337
0.104016
0.10609
0.105929
0.105755
0.105554
0.105361
0.105138
0.104895
0.104629
0.104337
0.104017
0.106091
0.10593
0.105755
0.105555
0.105362
0.105139
0.104896
0.10463
0.104339
0.104018
0.124984
0.10593
0.105756
0.105555
0.105363
0.10514
0.104897
0.104631
0.10434
0.104019
0.147715
0.105931
0.105757
0.105556
0.105364
0.105141
0.104898
0.104633
0.104342
0.104021
0.170294
0.105932
0.105758
0.105557
0.105365
0.105143
0.1049
0.104635
0.104344
0.104024
0.193042
0.105933
0.105759
0.105559
0.105366
0.105144
0.104902
0.104637
0.104346
0.104026
0.215769
0.105934
0.10576
0.10556
0.105368
0.105146
0.104904
0.104639
0.104348
0.104029
0.238596
0.105935
0.105762
0.105562
0.10537
0.105148
0.104906
0.104641
0.104351
0.104032
0.261245
0.105937
0.105763
0.105563
0.105372
0.10515
0.104908
0.104644
0.104354
0.104036
0.283997
0.105938
0.105765
0.105565
0.105374
0.105152
0.104911
0.104647
0.104358
0.10404
0.30672
0.10594
0.105767
0.105567
0.105376
0.105155
0.104914
0.10465
0.104361
0.104044
0.329299
0.105942
0.105769
0.105569
0.105379
0.105158
0.104917
0.104654
0.104365
0.104049
0.352055
0.105943
0.105771
0.105572
0.105381
0.105161
0.10492
0.104658
0.10437
0.104053
0.374774
0.105945
0.105773
0.105574
0.105384
0.105164
0.104924
0.104662
0.104374
0.104059
0.397659
0.105948
0.105775
0.105577
0.105387
0.105167
0.104928
0.104666
0.104379
0.104064
0.420249
0.10595
0.105778
0.10558
0.10539
0.105171
0.104931
0.10467
0.104384
0.10407
0.44301
0.105952
0.105781
0.105583
0.105393
0.105174
0.104936
0.104675
0.10439
0.104076
0.465725
0.105955
0.105783
0.105586
0.105397
0.105178
0.10494
0.10468
0.104395
0.104083
0.488303
0.105957
0.105786
0.105589
0.1054
0.105182
0.104945
0.104685
0.104401
0.104089
0.511068
0.10596
0.105789
0.105592
0.105404
0.105187
0.10495
0.104691
0.104407
0.104096
0.533779
0.105963
0.105793
0.105596
0.105408
0.105191
0.104955
0.104696
0.104414
0.104104
0.556723
0.105966
0.105796
0.1056
0.105412
0.105196
0.10496
0.104702
0.104421
0.104112
0.579254
0.105969
0.105799
0.105604
0.105417
0.105201
0.104965
0.104709
0.104428
0.10412
0.602023
0.105972
0.105803
0.105608
0.105421
0.105206
0.104971
0.104715
0.104435
0.104128
0.624729
0.105976
0.105807
0.105612
0.105426
0.105211
0.104977
0.104722
0.104443
0.104137
0.647308
0.105979
0.105811
0.105616
0.105431
0.105217
0.104983
0.104729
0.104451
0.104146
0.67008
0.105983
0.105815
0.105621
0.105436
0.105222
0.10499
0.104736
0.104459
0.104155
0.692783
0.105987
0.105819
0.105625
0.105441
0.105228
0.104996
0.104744
0.104467
0.104165
0.715787
0.10599
0.105823
0.10563
0.105447
0.105234
0.105003
0.104751
0.104476
0.106137
0.738259
0.105995
0.105828
0.105635
0.105452
0.10524
0.10501
0.104759
0.104485
0.112876
0.761036
0.105999
0.105832
0.10564
0.105458
0.105247
0.105017
0.104768
0.104495
0.119527
0.783734
0.78617
0.803581
0.820881
0.838265
0.855464
0.872725
0.890063
0.907294
0.924595
0.104015
0.104015
0.104015
0.104015
0.104015
0.104015
0.104015
0.104015
0.104015
0.104015
0.104015
0.104015
0.104015
0.104015
0.104015
0.104336
0.104336
0.104336
0.104336
0.104336
0.104336
0.104336
0.104336
0.104336
0.104336
0.104336
0.104336
0.104336
0.104336
0.104336
0.104628
0.104628
0.104628
0.104628
0.104628
0.104628
0.104628
0.104628
0.104628
0.104628
0.104628
0.104628
0.104628
0.104628
0.104628
0.104894
0.104894
0.104894
0.104894
0.104894
0.104894
0.104894
0.104894
0.104894
0.104894
0.104894
0.104894
0.104894
0.104894
0.104894
0.105137
0.105137
0.105137
0.105137
0.105137
0.105137
0.105137
0.105137
0.105137
0.105137
0.105137
0.105137
0.105137
0.105137
0.105137
0.10536
0.10536
0.10536
0.10536
0.10536
0.10536
0.10536
0.10536
0.10536
0.10536
0.10536
0.10536
0.10536
0.10536
0.10536
0.105553
0.105553
0.105553
0.105553
0.105553
0.105553
0.105553
0.105553
0.105553
0.105553
0.105553
0.105553
0.105553
0.105553
0.105553
0.105754
0.105754
0.105754
0.105754
0.105754
0.105754
0.105754
0.105754
0.105754
0.105754
0.105754
0.105754
0.105754
0.105754
0.105754
0.105929
0.105929
0.105929
0.105929
0.105929
0.105929
0.105929
0.105929
0.105929
0.105929
0.105929
0.105929
0.105929
0.105929
0.105929
0.10609
0.10609
0.10609
0.10609
0.10609
0.10609
0.10609
0.10609
0.10609
0.10609
0.10609
0.10609
0.10609
0.10609
0.10609
)
;

boundaryField
{
    inlet_one
    {
        type            calculated;
        value           nonuniform List<scalar> 
20
(
0.0111
0.0259018
0.0421823
0.0586741
0.0752344
0.0918274
0.108438
0.125073
0.1417
0.158321
0.174957
0.191596
0.208249
0.224903
0.241533
0.258165
0.274809
0.291467
0.308125
0.324771
)
;
    }
    inlet_two
    {
        type            calculated;
        value           nonuniform List<scalar> 10(4.64666e-15 4.64658e-15 4.64686e-15 4.6482e-15 4.64658e-15 4.64752e-15 4.64747e-15 1.39401e-14 9.2942e-15 9.29323e-15);
    }
    outlet
    {
        type            calculated;
        value           nonuniform List<scalar> 
20
(
0.00237905
0.00555044
0.00903891
0.0125728
0.0161233
0.0196754
0.0232315
0.0267968
0.0303636
0.0339312
0.0374925
0.0410545
0.044624
0.0481935
0.0517561
0.0553192
0.0588821
0.0624529
0.0660304
0.0695938
)
;
    }
    walls
    {
        type            calculated;
        value           nonuniform List<scalar> 
240
(
11.9987
11.0503
10.1568
9.31149
8.51518
7.76613
7.06219
6.4015
5.78453
5.20838
4.67183
4.17345
3.71252
3.28689
2.89518
0.0273559
0.0263656
0.0253727
0.0243759
0.0233516
0.0223386
0.021306
0.0202671
0.0192138
0.0181452
0.0170653
0.0159567
0.0148571
0.0137124
0.0125394
1.34242e+13
9.99047e+145
1.34242e+13
1.34242e+13
1.34242e+13
1.34274e+13
1.34242e+13
9.99047e+145
1.34274e+13
1.34242e+13
1.34242e+13
1.34242e+13
9.99047e+145
1.34242e+13
1.34242e+13
9.99047e+145
9.99047e+145
1.34242e+13
1.34242e+13
1.34274e+13
1.34242e+13
1.34242e+13
1.34274e+13
1.34242e+13
1.34242e+13
9.99047e+145
1.34274e+13
9.99047e+145
1.34242e+13
1.34274e+13
1.34242e+13
1.34242e+13
1.34242e+13
1.34274e+13
6.71211e+12
2.41128
2.53297
2.65775
2.78692
2.92092
3.05793
3.19983
3.34673
3.49682
3.65249
3.81136
3.9756
4.14532
4.31807
4.4965
4.68091
4.86791
5.06211
5.25928
5.46265
5.67232
5.88518
6.10402
6.32977
6.55837
6.79517
7.03474
7.2814
7.5356
7.7918
8.05737
8.32406
8.60329
8.88303
9.17314
9.4631
9.76969
10.0743
10.3848
10.7067
0.000325398
0.000219055
0.000146439
5.38858e-05
6.79279e-06
0.000106455
0.000174675
0.000261783
0.000319094
0.000413672
0.000477701
0.000551064
0.000624102
0.000695101
0.00077464
0.000835515
0.000905306
0.000973124
0.00104919
0.00110761
0.00117464
0.00123928
0.00131326
0.00136913
0.00144084
0.00148928
0.00156696
0.00162151
0.00169078
0.00173794
0.00181294
0.00186595
0.00193308
0.00197915
0.00205219
0.00210345
0.0021619
0.00222076
0.0022777
0.00234165
0.387028
0.391121
0.395168
0.399162
0.40308
0.40699
0.410907
0.414713
0.418489
0.422116
0.629271
0.63602
0.642704
0.649315
0.655881
0.662244
0.6687
0.675
0.681224
0.687231
0.0112893
0.0340288
0.0567647
0.0795319
0.10224
0.124984
0.147715
0.170294
0.193042
0.215769
0.238596
0.261245
0.283997
0.30672
0.329299
0.352055
0.374774
0.397659
0.420249
0.44301
0.465725
0.488303
0.511068
0.533779
0.556723
0.579254
0.602023
0.624729
0.647308
0.67008
0.692783
0.715787
0.738259
0.761036
0.768848
0.783734
0.78617
0.803581